+ 1 1 2 tcp 40 ------- 4 1.0 2.0 0 0
- 1 1 2 tcp 40 ------- 4 1.0 2.0 0 0
+ 1 0 1 cbr 210 ------- 3 0.0 3.0 0 1
- 1 0 1 cbr 210 ------- 3 0.0 3.0 0 1
+ 1.00375 0 1 cbr 210 ------- 3 0.0 3.0 1 2
- 1.00375 0 1 cbr 210 ------- 3 0.0 3.0 1 2
+ 1.0075 0 1 cbr 210 ------- 3 0.0 3.0 2 3
- 1.0075 0 1 cbr 210 ------- 3 0.0 3.0 2 3
+ 1.01125 0 1 cbr 210 ------- 3 0.0 3.0 3 4
- 1.01125 0 1 cbr 210 ------- 3 0.0 3.0 3 4
+ 1.015 0 1 cbr 210 ------- 3 0.0 3.0 4 5
- 1.015 0 1 cbr 210 ------- 3 0.0 3.0 4 5
+ 1.01875 0 1 cbr 210 ------- 3 0.0 3.0 5 6
- 1.01875 0 1 cbr 210 ------- 3 0.0 3.0 5 6
+ 1.0225 0 1 cbr 210 ------- 3 0.0 3.0 6 7
- 1.0225 0 1 cbr 210 ------- 3 0.0 3.0 6 7
+ 1.02625 0 1 cbr 210 ------- 3 0.0 3.0 7 8
- 1.02625 0 1 cbr 210 ------- 3 0.0 3.0 7 8
+ 1.03 0 1 cbr 210 ------- 3 0.0 3.0 8 9
- 1.03 0 1 cbr 210 ------- 3 0.0 3.0 8 9
+ 1.03375 0 1 cbr 210 ------- 3 0.0 3.0 9 10
- 1.03375 0 1 cbr 210 ------- 3 0.0 3.0 9 10
+ 1.0375 0 1 cbr 210 ------- 3 0.0 3.0 10 11
- 1.0375 0 1 cbr 210 ------- 3 0.0 3.0 10 11
+ 1.04125 0 1 cbr 210 ------- 3 0.0 3.0 11 12
- 1.04125 0 1 cbr 210 ------- 3 0.0 3.0 11 12
+ 1.045 0 1 cbr 210 ------- 3 0.0 3.0 12 13
- 1.045 0 1 cbr 210 ------- 3 0.0 3.0 12 13
+ 1.04875 0 1 cbr 210 ------- 3 0.0 3.0 13 14
- 1.04875 0 1 cbr 210 ------- 3 0.0 3.0 13 14
r 1.05016 1 2 tcp 40 ------- 4 1.0 2.0 0 0
+ 1.05016 2 1 ack 40 ------- 4 2.0 1.0 0 15
- 1.05016 2 1 ack 40 ------- 4 2.0 1.0 0 15
r 1.05084 0 1 cbr 210 ------- 3 0.0 3.0 0 1
+ 1.05084 1 2 cbr 210 ------- 3 0.0 3.0 0 1
- 1.05084 1 2 cbr 210 ------- 3 0.0 3.0 0 1
+ 1.0525 0 1 cbr 210 ------- 3 0.0 3.0 14 16
- 1.0525 0 1 cbr 210 ------- 3 0.0 3.0 14 16
r 1.05459 0 1 cbr 210 ------- 3 0.0 3.0 1 2
+ 1.05459 1 2 cbr 210 ------- 3 0.0 3.0 1 2
- 1.05459 1 2 cbr 210 ------- 3 0.0 3.0 1 2
+ 1.05625 0 1 cbr 210 ------- 3 0.0 3.0 15 17
- 1.05625 0 1 cbr 210 ------- 3 0.0 3.0 15 17
r 1.05834 0 1 cbr 210 ------- 3 0.0 3.0 2 3
+ 1.05834 1 2 cbr 210 ------- 3 0.0 3.0 2 3
- 1.05834 1 2 cbr 210 ------- 3 0.0 3.0 2 3
+ 1.06 0 1 cbr 210 ------- 3 0.0 3.0 16 18
- 1.06 0 1 cbr 210 ------- 3 0.0 3.0 16 18
r 1.06209 0 1 cbr 210 ------- 3 0.0 3.0 3 4
+ 1.06209 1 2 cbr 210 ------- 3 0.0 3.0 3 4
- 1.06209 1 2 cbr 210 ------- 3 0.0 3.0 3 4
+ 1.06375 0 1 cbr 210 ------- 3 0.0 3.0 17 19
- 1.06375 0 1 cbr 210 ------- 3 0.0 3.0 17 19
r 1.06584 0 1 cbr 210 ------- 3 0.0 3.0 4 5
+ 1.06584 1 2 cbr 210 ------- 3 0.0 3.0 4 5
- 1.06584 1 2 cbr 210 ------- 3 0.0 3.0 4 5
+ 1.0675 0 1 cbr 210 ------- 3 0.0 3.0 18 20
- 1.0675 0 1 cbr 210 ------- 3 0.0 3.0 18 20
r 1.06959 0 1 cbr 210 ------- 3 0.0 3.0 5 6
+ 1.06959 1 2 cbr 210 ------- 3 0.0 3.0 5 6
- 1.06959 1 2 cbr 210 ------- 3 0.0 3.0 5 6
+ 1.07125 0 1 cbr 210 ------- 3 0.0 3.0 19 21
- 1.07125 0 1 cbr 210 ------- 3 0.0 3.0 19 21
r 1.07334 0 1 cbr 210 ------- 3 0.0 3.0 6 7
+ 1.07334 1 2 cbr 210 ------- 3 0.0 3.0 6 7
- 1.07334 1 2 cbr 210 ------- 3 0.0 3.0 6 7
+ 1.075 0 1 cbr 210 ------- 3 0.0 3.0 20 22
- 1.075 0 1 cbr 210 ------- 3 0.0 3.0 20 22
r 1.07709 0 1 cbr 210 ------- 3 0.0 3.0 7 8
+ 1.07709 1 2 cbr 210 ------- 3 0.0 3.0 7 8
- 1.07709 1 2 cbr 210 ------- 3 0.0 3.0 7 8
+ 1.07875 0 1 cbr 210 ------- 3 0.0 3.0 21 23
- 1.07875 0 1 cbr 210 ------- 3 0.0 3.0 21 23
r 1.08084 0 1 cbr 210 ------- 3 0.0 3.0 8 9
+ 1.08084 1 2 cbr 210 ------- 3 0.0 3.0 8 9
- 1.08084 1 2 cbr 210 ------- 3 0.0 3.0 8 9
+ 1.0825 0 1 cbr 210 ------- 3 0.0 3.0 22 24
- 1.0825 0 1 cbr 210 ------- 3 0.0 3.0 22 24
r 1.08459 0 1 cbr 210 ------- 3 0.0 3.0 9 10
+ 1.08459 1 2 cbr 210 ------- 3 0.0 3.0 9 10
- 1.08459 1 2 cbr 210 ------- 3 0.0 3.0 9 10
+ 1.08625 0 1 cbr 210 ------- 3 0.0 3.0 23 25
- 1.08625 0 1 cbr 210 ------- 3 0.0 3.0 23 25
r 1.08834 0 1 cbr 210 ------- 3 0.0 3.0 10 11
+ 1.08834 1 2 cbr 210 ------- 3 0.0 3.0 10 11
- 1.08834 1 2 cbr 210 ------- 3 0.0 3.0 10 11
+ 1.09 0 1 cbr 210 ------- 3 0.0 3.0 24 26
- 1.09 0 1 cbr 210 ------- 3 0.0 3.0 24 26
r 1.09209 0 1 cbr 210 ------- 3 0.0 3.0 11 12
+ 1.09209 1 2 cbr 210 ------- 3 0.0 3.0 11 12
- 1.09209 1 2 cbr 210 ------- 3 0.0 3.0 11 12
+ 1.09375 0 1 cbr 210 ------- 3 0.0 3.0 25 27
- 1.09375 0 1 cbr 210 ------- 3 0.0 3.0 25 27
r 1.09584 0 1 cbr 210 ------- 3 0.0 3.0 12 13
+ 1.09584 1 2 cbr 210 ------- 3 0.0 3.0 12 13
- 1.09584 1 2 cbr 210 ------- 3 0.0 3.0 12 13
+ 1.0975 0 1 cbr 210 ------- 3 0.0 3.0 26 28
- 1.0975 0 1 cbr 210 ------- 3 0.0 3.0 26 28
r 1.09959 0 1 cbr 210 ------- 3 0.0 3.0 13 14
+ 1.09959 1 2 cbr 210 ------- 3 0.0 3.0 13 14
- 1.09959 1 2 cbr 210 ------- 3 0.0 3.0 13 14
r 1.10032 2 1 ack 40 ------- 4 2.0 1.0 0 15
+ 1.10032 1 2 tcp 1040 ------- 4 1.0 2.0 1 29
+ 1.10032 1 2 tcp 1040 ------- 4 1.0 2.0 2 30
- 1.10043 1 2 tcp 1040 ------- 4 1.0 2.0 1 29
+ 1.10125 0 1 cbr 210 ------- 3 0.0 3.0 27 31
- 1.10125 0 1 cbr 210 ------- 3 0.0 3.0 27 31
r 1.10168 1 2 cbr 210 ------- 3 0.0 3.0 0 1
+ 1.10168 2 3 cbr 210 ------- 3 0.0 3.0 0 1
- 1.10168 2 3 cbr 210 ------- 3 0.0 3.0 0 1
r 1.10334 0 1 cbr 210 ------- 3 0.0 3.0 14 16
+ 1.10334 1 2 cbr 210 ------- 3 0.0 3.0 14 16
- 1.10459 1 2 tcp 1040 ------- 4 1.0 2.0 2 30
+ 1.105 0 1 cbr 210 ------- 3 0.0 3.0 28 32
- 1.105 0 1 cbr 210 ------- 3 0.0 3.0 28 32
r 1.10543 1 2 cbr 210 ------- 3 0.0 3.0 1 2
+ 1.10543 2 3 cbr 210 ------- 3 0.0 3.0 1 2
- 1.10543 2 3 cbr 210 ------- 3 0.0 3.0 1 2
r 1.10709 0 1 cbr 210 ------- 3 0.0 3.0 15 17
+ 1.10709 1 2 cbr 210 ------- 3 0.0 3.0 15 17
+ 1.10875 0 1 cbr 210 ------- 3 0.0 3.0 29 33
- 1.10875 0 1 cbr 210 ------- 3 0.0 3.0 29 33
- 1.10875 1 2 cbr 210 ------- 3 0.0 3.0 14 16
r 1.10918 1 2 cbr 210 ------- 3 0.0 3.0 2 3
+ 1.10918 2 3 cbr 210 ------- 3 0.0 3.0 2 3
- 1.10918 2 3 cbr 210 ------- 3 0.0 3.0 2 3
- 1.10959 1 2 cbr 210 ------- 3 0.0 3.0 15 17
r 1.11084 0 1 cbr 210 ------- 3 0.0 3.0 16 18
+ 1.11084 1 2 cbr 210 ------- 3 0.0 3.0 16 18
- 1.11084 1 2 cbr 210 ------- 3 0.0 3.0 16 18
+ 1.1125 0 1 cbr 210 ------- 3 0.0 3.0 30 34
- 1.1125 0 1 cbr 210 ------- 3 0.0 3.0 30 34
r 1.11293 1 2 cbr 210 ------- 3 0.0 3.0 3 4
+ 1.11293 2 3 cbr 210 ------- 3 0.0 3.0 3 4
- 1.11293 2 3 cbr 210 ------- 3 0.0 3.0 3 4
r 1.11459 0 1 cbr 210 ------- 3 0.0 3.0 17 19
+ 1.11459 1 2 cbr 210 ------- 3 0.0 3.0 17 19
- 1.11459 1 2 cbr 210 ------- 3 0.0 3.0 17 19
+ 1.11625 0 1 cbr 210 ------- 3 0.0 3.0 31 35
- 1.11625 0 1 cbr 210 ------- 3 0.0 3.0 31 35
r 1.11668 1 2 cbr 210 ------- 3 0.0 3.0 4 5
+ 1.11668 2 3 cbr 210 ------- 3 0.0 3.0 4 5
- 1.11668 2 3 cbr 210 ------- 3 0.0 3.0 4 5
r 1.11834 0 1 cbr 210 ------- 3 0.0 3.0 18 20
+ 1.11834 1 2 cbr 210 ------- 3 0.0 3.0 18 20
- 1.11834 1 2 cbr 210 ------- 3 0.0 3.0 18 20
+ 1.12 0 1 cbr 210 ------- 3 0.0 3.0 32 36
- 1.12 0 1 cbr 210 ------- 3 0.0 3.0 32 36
r 1.12043 1 2 cbr 210 ------- 3 0.0 3.0 5 6
+ 1.12043 2 3 cbr 210 ------- 3 0.0 3.0 5 6
- 1.12043 2 3 cbr 210 ------- 3 0.0 3.0 5 6
r 1.12209 0 1 cbr 210 ------- 3 0.0 3.0 19 21
+ 1.12209 1 2 cbr 210 ------- 3 0.0 3.0 19 21
- 1.12209 1 2 cbr 210 ------- 3 0.0 3.0 19 21
+ 1.12375 0 1 cbr 210 ------- 3 0.0 3.0 33 37
- 1.12375 0 1 cbr 210 ------- 3 0.0 3.0 33 37
r 1.12418 1 2 cbr 210 ------- 3 0.0 3.0 6 7
+ 1.12418 2 3 cbr 210 ------- 3 0.0 3.0 6 7
- 1.12418 2 3 cbr 210 ------- 3 0.0 3.0 6 7
r 1.12584 0 1 cbr 210 ------- 3 0.0 3.0 20 22
+ 1.12584 1 2 cbr 210 ------- 3 0.0 3.0 20 22
- 1.12584 1 2 cbr 210 ------- 3 0.0 3.0 20 22
+ 1.1275 0 1 cbr 210 ------- 3 0.0 3.0 34 38
- 1.1275 0 1 cbr 210 ------- 3 0.0 3.0 34 38
r 1.12793 1 2 cbr 210 ------- 3 0.0 3.0 7 8
+ 1.12793 2 3 cbr 210 ------- 3 0.0 3.0 7 8
- 1.12793 2 3 cbr 210 ------- 3 0.0 3.0 7 8
r 1.12959 0 1 cbr 210 ------- 3 0.0 3.0 21 23
+ 1.12959 1 2 cbr 210 ------- 3 0.0 3.0 21 23
- 1.12959 1 2 cbr 210 ------- 3 0.0 3.0 21 23
+ 1.13125 0 1 cbr 210 ------- 3 0.0 3.0 35 39
- 1.13125 0 1 cbr 210 ------- 3 0.0 3.0 35 39
r 1.13168 1 2 cbr 210 ------- 3 0.0 3.0 8 9
+ 1.13168 2 3 cbr 210 ------- 3 0.0 3.0 8 9
- 1.13168 2 3 cbr 210 ------- 3 0.0 3.0 8 9
r 1.13334 0 1 cbr 210 ------- 3 0.0 3.0 22 24
+ 1.13334 1 2 cbr 210 ------- 3 0.0 3.0 22 24
- 1.13334 1 2 cbr 210 ------- 3 0.0 3.0 22 24
+ 1.135 0 1 cbr 210 ------- 3 0.0 3.0 36 40
- 1.135 0 1 cbr 210 ------- 3 0.0 3.0 36 40
r 1.13543 1 2 cbr 210 ------- 3 0.0 3.0 9 10
+ 1.13543 2 3 cbr 210 ------- 3 0.0 3.0 9 10
- 1.13543 2 3 cbr 210 ------- 3 0.0 3.0 9 10
r 1.13709 0 1 cbr 210 ------- 3 0.0 3.0 23 25
+ 1.13709 1 2 cbr 210 ------- 3 0.0 3.0 23 25
- 1.13709 1 2 cbr 210 ------- 3 0.0 3.0 23 25
+ 1.13875 0 1 cbr 210 ------- 3 0.0 3.0 37 41
- 1.13875 0 1 cbr 210 ------- 3 0.0 3.0 37 41
r 1.13918 1 2 cbr 210 ------- 3 0.0 3.0 10 11
+ 1.13918 2 3 cbr 210 ------- 3 0.0 3.0 10 11
- 1.13918 2 3 cbr 210 ------- 3 0.0 3.0 10 11
r 1.14084 0 1 cbr 210 ------- 3 0.0 3.0 24 26
+ 1.14084 1 2 cbr 210 ------- 3 0.0 3.0 24 26
- 1.14084 1 2 cbr 210 ------- 3 0.0 3.0 24 26
+ 1.1425 0 1 cbr 210 ------- 3 0.0 3.0 38 42
- 1.1425 0 1 cbr 210 ------- 3 0.0 3.0 38 42
r 1.14293 1 2 cbr 210 ------- 3 0.0 3.0 11 12
+ 1.14293 2 3 cbr 210 ------- 3 0.0 3.0 11 12
- 1.14293 2 3 cbr 210 ------- 3 0.0 3.0 11 12
r 1.14459 0 1 cbr 210 ------- 3 0.0 3.0 25 27
+ 1.14459 1 2 cbr 210 ------- 3 0.0 3.0 25 27
- 1.14459 1 2 cbr 210 ------- 3 0.0 3.0 25 27
+ 1.14625 0 1 cbr 210 ------- 3 0.0 3.0 39 43
- 1.14625 0 1 cbr 210 ------- 3 0.0 3.0 39 43
r 1.14668 1 2 cbr 210 ------- 3 0.0 3.0 12 13
+ 1.14668 2 3 cbr 210 ------- 3 0.0 3.0 12 13
- 1.14668 2 3 cbr 210 ------- 3 0.0 3.0 12 13
r 1.14834 0 1 cbr 210 ------- 3 0.0 3.0 26 28
+ 1.14834 1 2 cbr 210 ------- 3 0.0 3.0 26 28
- 1.14834 1 2 cbr 210 ------- 3 0.0 3.0 26 28
+ 1.15 0 1 cbr 210 ------- 3 0.0 3.0 40 44
- 1.15 0 1 cbr 210 ------- 3 0.0 3.0 40 44
r 1.15043 1 2 cbr 210 ------- 3 0.0 3.0 13 14
+ 1.15043 2 3 cbr 210 ------- 3 0.0 3.0 13 14
- 1.15043 2 3 cbr 210 ------- 3 0.0 3.0 13 14
r 1.15209 0 1 cbr 210 ------- 3 0.0 3.0 27 31
+ 1.15209 1 2 cbr 210 ------- 3 0.0 3.0 27 31
- 1.15209 1 2 cbr 210 ------- 3 0.0 3.0 27 31
r 1.15252 2 3 cbr 210 ------- 3 0.0 3.0 0 1
+ 1.15375 0 1 cbr 210 ------- 3 0.0 3.0 41 45
- 1.15375 0 1 cbr 210 ------- 3 0.0 3.0 41 45
r 1.15459 1 2 tcp 1040 ------- 4 1.0 2.0 1 29
+ 1.15459 2 1 ack 40 ------- 4 2.0 1.0 1 46
- 1.15459 2 1 ack 40 ------- 4 2.0 1.0 1 46
r 1.15584 0 1 cbr 210 ------- 3 0.0 3.0 28 32
+ 1.15584 1 2 cbr 210 ------- 3 0.0 3.0 28 32
- 1.15584 1 2 cbr 210 ------- 3 0.0 3.0 28 32
r 1.15627 2 3 cbr 210 ------- 3 0.0 3.0 1 2
+ 1.1575 0 1 cbr 210 ------- 3 0.0 3.0 42 47
- 1.1575 0 1 cbr 210 ------- 3 0.0 3.0 42 47
r 1.15875 1 2 tcp 1040 ------- 4 1.0 2.0 2 30
+ 1.15875 2 1 ack 40 ------- 4 2.0 1.0 2 48
- 1.15875 2 1 ack 40 ------- 4 2.0 1.0 2 48
r 1.15959 0 1 cbr 210 ------- 3 0.0 3.0 29 33
+ 1.15959 1 2 cbr 210 ------- 3 0.0 3.0 29 33
- 1.15959 1 2 cbr 210 ------- 3 0.0 3.0 29 33
r 1.15959 1 2 cbr 210 ------- 3 0.0 3.0 14 16
+ 1.15959 2 3 cbr 210 ------- 3 0.0 3.0 14 16
- 1.15959 2 3 cbr 210 ------- 3 0.0 3.0 14 16
r 1.16002 2 3 cbr 210 ------- 3 0.0 3.0 2 3
r 1.16043 1 2 cbr 210 ------- 3 0.0 3.0 15 17
+ 1.16043 2 3 cbr 210 ------- 3 0.0 3.0 15 17
- 1.16043 2 3 cbr 210 ------- 3 0.0 3.0 15 17
+ 1.16125 0 1 cbr 210 ------- 3 0.0 3.0 43 49
- 1.16125 0 1 cbr 210 ------- 3 0.0 3.0 43 49
r 1.16168 1 2 cbr 210 ------- 3 0.0 3.0 16 18
+ 1.16168 2 3 cbr 210 ------- 3 0.0 3.0 16 18
- 1.16168 2 3 cbr 210 ------- 3 0.0 3.0 16 18
r 1.16334 0 1 cbr 210 ------- 3 0.0 3.0 30 34
+ 1.16334 1 2 cbr 210 ------- 3 0.0 3.0 30 34
- 1.16334 1 2 cbr 210 ------- 3 0.0 3.0 30 34
r 1.16377 2 3 cbr 210 ------- 3 0.0 3.0 3 4
+ 1.165 0 1 cbr 210 ------- 3 0.0 3.0 44 50
- 1.165 0 1 cbr 210 ------- 3 0.0 3.0 44 50
r 1.16543 1 2 cbr 210 ------- 3 0.0 3.0 17 19
+ 1.16543 2 3 cbr 210 ------- 3 0.0 3.0 17 19
- 1.16543 2 3 cbr 210 ------- 3 0.0 3.0 17 19
r 1.16709 0 1 cbr 210 ------- 3 0.0 3.0 31 35
+ 1.16709 1 2 cbr 210 ------- 3 0.0 3.0 31 35
- 1.16709 1 2 cbr 210 ------- 3 0.0 3.0 31 35
r 1.16752 2 3 cbr 210 ------- 3 0.0 3.0 4 5
+ 1.16875 0 1 cbr 210 ------- 3 0.0 3.0 45 51
- 1.16875 0 1 cbr 210 ------- 3 0.0 3.0 45 51
r 1.16918 1 2 cbr 210 ------- 3 0.0 3.0 18 20
+ 1.16918 2 3 cbr 210 ------- 3 0.0 3.0 18 20
- 1.16918 2 3 cbr 210 ------- 3 0.0 3.0 18 20
r 1.17084 0 1 cbr 210 ------- 3 0.0 3.0 32 36
+ 1.17084 1 2 cbr 210 ------- 3 0.0 3.0 32 36
- 1.17084 1 2 cbr 210 ------- 3 0.0 3.0 32 36
r 1.17127 2 3 cbr 210 ------- 3 0.0 3.0 5 6
+ 1.1725 0 1 cbr 210 ------- 3 0.0 3.0 46 52
- 1.1725 0 1 cbr 210 ------- 3 0.0 3.0 46 52
r 1.17293 1 2 cbr 210 ------- 3 0.0 3.0 19 21
+ 1.17293 2 3 cbr 210 ------- 3 0.0 3.0 19 21
- 1.17293 2 3 cbr 210 ------- 3 0.0 3.0 19 21
r 1.17459 0 1 cbr 210 ------- 3 0.0 3.0 33 37
+ 1.17459 1 2 cbr 210 ------- 3 0.0 3.0 33 37
- 1.17459 1 2 cbr 210 ------- 3 0.0 3.0 33 37
r 1.17502 2 3 cbr 210 ------- 3 0.0 3.0 6 7
+ 1.17625 0 1 cbr 210 ------- 3 0.0 3.0 47 53
- 1.17625 0 1 cbr 210 ------- 3 0.0 3.0 47 53
r 1.17668 1 2 cbr 210 ------- 3 0.0 3.0 20 22
+ 1.17668 2 3 cbr 210 ------- 3 0.0 3.0 20 22
- 1.17668 2 3 cbr 210 ------- 3 0.0 3.0 20 22
r 1.17834 0 1 cbr 210 ------- 3 0.0 3.0 34 38
+ 1.17834 1 2 cbr 210 ------- 3 0.0 3.0 34 38
- 1.17834 1 2 cbr 210 ------- 3 0.0 3.0 34 38
r 1.17877 2 3 cbr 210 ------- 3 0.0 3.0 7 8
+ 1.18 0 1 cbr 210 ------- 3 0.0 3.0 48 54
- 1.18 0 1 cbr 210 ------- 3 0.0 3.0 48 54
r 1.18043 1 2 cbr 210 ------- 3 0.0 3.0 21 23
+ 1.18043 2 3 cbr 210 ------- 3 0.0 3.0 21 23
- 1.18043 2 3 cbr 210 ------- 3 0.0 3.0 21 23
r 1.18209 0 1 cbr 210 ------- 3 0.0 3.0 35 39
+ 1.18209 1 2 cbr 210 ------- 3 0.0 3.0 35 39
- 1.18209 1 2 cbr 210 ------- 3 0.0 3.0 35 39
r 1.18252 2 3 cbr 210 ------- 3 0.0 3.0 8 9
+ 1.18375 0 1 cbr 210 ------- 3 0.0 3.0 49 55
- 1.18375 0 1 cbr 210 ------- 3 0.0 3.0 49 55
r 1.18418 1 2 cbr 210 ------- 3 0.0 3.0 22 24
+ 1.18418 2 3 cbr 210 ------- 3 0.0 3.0 22 24
- 1.18418 2 3 cbr 210 ------- 3 0.0 3.0 22 24
r 1.18584 0 1 cbr 210 ------- 3 0.0 3.0 36 40
+ 1.18584 1 2 cbr 210 ------- 3 0.0 3.0 36 40
- 1.18584 1 2 cbr 210 ------- 3 0.0 3.0 36 40
r 1.18627 2 3 cbr 210 ------- 3 0.0 3.0 9 10
+ 1.1875 0 1 cbr 210 ------- 3 0.0 3.0 50 56
- 1.1875 0 1 cbr 210 ------- 3 0.0 3.0 50 56
r 1.18793 1 2 cbr 210 ------- 3 0.0 3.0 23 25
+ 1.18793 2 3 cbr 210 ------- 3 0.0 3.0 23 25
- 1.18793 2 3 cbr 210 ------- 3 0.0 3.0 23 25
r 1.18959 0 1 cbr 210 ------- 3 0.0 3.0 37 41
+ 1.18959 1 2 cbr 210 ------- 3 0.0 3.0 37 41
- 1.18959 1 2 cbr 210 ------- 3 0.0 3.0 37 41
r 1.19002 2 3 cbr 210 ------- 3 0.0 3.0 10 11
+ 1.19125 0 1 cbr 210 ------- 3 0.0 3.0 51 57
- 1.19125 0 1 cbr 210 ------- 3 0.0 3.0 51 57
r 1.19168 1 2 cbr 210 ------- 3 0.0 3.0 24 26
+ 1.19168 2 3 cbr 210 ------- 3 0.0 3.0 24 26
- 1.19168 2 3 cbr 210 ------- 3 0.0 3.0 24 26
r 1.19334 0 1 cbr 210 ------- 3 0.0 3.0 38 42
+ 1.19334 1 2 cbr 210 ------- 3 0.0 3.0 38 42
- 1.19334 1 2 cbr 210 ------- 3 0.0 3.0 38 42
r 1.19377 2 3 cbr 210 ------- 3 0.0 3.0 11 12
+ 1.195 0 1 cbr 210 ------- 3 0.0 3.0 52 58
- 1.195 0 1 cbr 210 ------- 3 0.0 3.0 52 58
r 1.19543 1 2 cbr 210 ------- 3 0.0 3.0 25 27
+ 1.19543 2 3 cbr 210 ------- 3 0.0 3.0 25 27
- 1.19543 2 3 cbr 210 ------- 3 0.0 3.0 25 27
r 1.19709 0 1 cbr 210 ------- 3 0.0 3.0 39 43
+ 1.19709 1 2 cbr 210 ------- 3 0.0 3.0 39 43
- 1.19709 1 2 cbr 210 ------- 3 0.0 3.0 39 43
r 1.19752 2 3 cbr 210 ------- 3 0.0 3.0 12 13
+ 1.19875 0 1 cbr 210 ------- 3 0.0 3.0 53 59
- 1.19875 0 1 cbr 210 ------- 3 0.0 3.0 53 59
r 1.19918 1 2 cbr 210 ------- 3 0.0 3.0 26 28
+ 1.19918 2 3 cbr 210 ------- 3 0.0 3.0 26 28
- 1.19918 2 3 cbr 210 ------- 3 0.0 3.0 26 28
r 1.20084 0 1 cbr 210 ------- 3 0.0 3.0 40 44
+ 1.20084 1 2 cbr 210 ------- 3 0.0 3.0 40 44
- 1.20084 1 2 cbr 210 ------- 3 0.0 3.0 40 44
r 1.20127 2 3 cbr 210 ------- 3 0.0 3.0 13 14
+ 1.2025 0 1 cbr 210 ------- 3 0.0 3.0 54 60
- 1.2025 0 1 cbr 210 ------- 3 0.0 3.0 54 60
r 1.20293 1 2 cbr 210 ------- 3 0.0 3.0 27 31
+ 1.20293 2 3 cbr 210 ------- 3 0.0 3.0 27 31
- 1.20293 2 3 cbr 210 ------- 3 0.0 3.0 27 31
r 1.20459 0 1 cbr 210 ------- 3 0.0 3.0 41 45
+ 1.20459 1 2 cbr 210 ------- 3 0.0 3.0 41 45
- 1.20459 1 2 cbr 210 ------- 3 0.0 3.0 41 45
r 1.20475 2 1 ack 40 ------- 4 2.0 1.0 1 46
+ 1.20475 1 2 tcp 1040 ------- 4 1.0 2.0 3 61
+ 1.20475 1 2 tcp 1040 ------- 4 1.0 2.0 4 62
- 1.20543 1 2 tcp 1040 ------- 4 1.0 2.0 3 61
+ 1.20625 0 1 cbr 210 ------- 3 0.0 3.0 55 63
- 1.20625 0 1 cbr 210 ------- 3 0.0 3.0 55 63
r 1.20668 1 2 cbr 210 ------- 3 0.0 3.0 28 32
+ 1.20668 2 3 cbr 210 ------- 3 0.0 3.0 28 32
- 1.20668 2 3 cbr 210 ------- 3 0.0 3.0 28 32
r 1.20834 0 1 cbr 210 ------- 3 0.0 3.0 42 47
+ 1.20834 1 2 cbr 210 ------- 3 0.0 3.0 42 47
r 1.20891 2 1 ack 40 ------- 4 2.0 1.0 2 48
+ 1.20891 1 2 tcp 1040 ------- 4 1.0 2.0 5 64
+ 1.20891 1 2 tcp 1040 ------- 4 1.0 2.0 6 65
- 1.20959 1 2 tcp 1040 ------- 4 1.0 2.0 4 62
+ 1.21 0 1 cbr 210 ------- 3 0.0 3.0 56 66
- 1.21 0 1 cbr 210 ------- 3 0.0 3.0 56 66
r 1.21043 1 2 cbr 210 ------- 3 0.0 3.0 29 33
+ 1.21043 2 3 cbr 210 ------- 3 0.0 3.0 29 33
- 1.21043 2 3 cbr 210 ------- 3 0.0 3.0 29 33
r 1.21043 2 3 cbr 210 ------- 3 0.0 3.0 14 16
r 1.21127 2 3 cbr 210 ------- 3 0.0 3.0 15 17
r 1.21209 0 1 cbr 210 ------- 3 0.0 3.0 43 49
+ 1.21209 1 2 cbr 210 ------- 3 0.0 3.0 43 49
r 1.21252 2 3 cbr 210 ------- 3 0.0 3.0 16 18
+ 1.21375 0 1 cbr 210 ------- 3 0.0 3.0 57 67
- 1.21375 0 1 cbr 210 ------- 3 0.0 3.0 57 67
- 1.21375 1 2 cbr 210 ------- 3 0.0 3.0 42 47
r 1.21418 1 2 cbr 210 ------- 3 0.0 3.0 30 34
+ 1.21418 2 3 cbr 210 ------- 3 0.0 3.0 30 34
- 1.21418 2 3 cbr 210 ------- 3 0.0 3.0 30 34
- 1.21459 1 2 tcp 1040 ------- 4 1.0 2.0 5 64
r 1.21584 0 1 cbr 210 ------- 3 0.0 3.0 44 50
+ 1.21584 1 2 cbr 210 ------- 3 0.0 3.0 44 50
r 1.21627 2 3 cbr 210 ------- 3 0.0 3.0 17 19
+ 1.2175 0 1 cbr 210 ------- 3 0.0 3.0 58 68
- 1.2175 0 1 cbr 210 ------- 3 0.0 3.0 58 68
r 1.21793 1 2 cbr 210 ------- 3 0.0 3.0 31 35
+ 1.21793 2 3 cbr 210 ------- 3 0.0 3.0 31 35
- 1.21793 2 3 cbr 210 ------- 3 0.0 3.0 31 35
- 1.21875 1 2 tcp 1040 ------- 4 1.0 2.0 6 65
r 1.21959 0 1 cbr 210 ------- 3 0.0 3.0 45 51
+ 1.21959 1 2 cbr 210 ------- 3 0.0 3.0 45 51
r 1.22002 2 3 cbr 210 ------- 3 0.0 3.0 18 20
+ 1.22125 0 1 cbr 210 ------- 3 0.0 3.0 59 69
- 1.22125 0 1 cbr 210 ------- 3 0.0 3.0 59 69
r 1.22168 1 2 cbr 210 ------- 3 0.0 3.0 32 36
+ 1.22168 2 3 cbr 210 ------- 3 0.0 3.0 32 36
- 1.22168 2 3 cbr 210 ------- 3 0.0 3.0 32 36
- 1.22291 1 2 cbr 210 ------- 3 0.0 3.0 43 49
r 1.22334 0 1 cbr 210 ------- 3 0.0 3.0 46 52
+ 1.22334 1 2 cbr 210 ------- 3 0.0 3.0 46 52
- 1.22375 1 2 cbr 210 ------- 3 0.0 3.0 44 50
r 1.22377 2 3 cbr 210 ------- 3 0.0 3.0 19 21
- 1.22459 1 2 cbr 210 ------- 3 0.0 3.0 45 51
+ 1.225 0 1 cbr 210 ------- 3 0.0 3.0 60 70
- 1.225 0 1 cbr 210 ------- 3 0.0 3.0 60 70
- 1.22543 1 2 cbr 210 ------- 3 0.0 3.0 46 52
r 1.22543 1 2 cbr 210 ------- 3 0.0 3.0 33 37
+ 1.22543 2 3 cbr 210 ------- 3 0.0 3.0 33 37
- 1.22543 2 3 cbr 210 ------- 3 0.0 3.0 33 37
r 1.22709 0 1 cbr 210 ------- 3 0.0 3.0 47 53
+ 1.22709 1 2 cbr 210 ------- 3 0.0 3.0 47 53
- 1.22709 1 2 cbr 210 ------- 3 0.0 3.0 47 53
r 1.22752 2 3 cbr 210 ------- 3 0.0 3.0 20 22
+ 1.22875 0 1 cbr 210 ------- 3 0.0 3.0 61 71
- 1.22875 0 1 cbr 210 ------- 3 0.0 3.0 61 71
r 1.22918 1 2 cbr 210 ------- 3 0.0 3.0 34 38
+ 1.22918 2 3 cbr 210 ------- 3 0.0 3.0 34 38
- 1.22918 2 3 cbr 210 ------- 3 0.0 3.0 34 38
r 1.23084 0 1 cbr 210 ------- 3 0.0 3.0 48 54
+ 1.23084 1 2 cbr 210 ------- 3 0.0 3.0 48 54
- 1.23084 1 2 cbr 210 ------- 3 0.0 3.0 48 54
r 1.23127 2 3 cbr 210 ------- 3 0.0 3.0 21 23
+ 1.2325 0 1 cbr 210 ------- 3 0.0 3.0 62 72
- 1.2325 0 1 cbr 210 ------- 3 0.0 3.0 62 72
r 1.23293 1 2 cbr 210 ------- 3 0.0 3.0 35 39
+ 1.23293 2 3 cbr 210 ------- 3 0.0 3.0 35 39
- 1.23293 2 3 cbr 210 ------- 3 0.0 3.0 35 39
r 1.23459 0 1 cbr 210 ------- 3 0.0 3.0 49 55
+ 1.23459 1 2 cbr 210 ------- 3 0.0 3.0 49 55
- 1.23459 1 2 cbr 210 ------- 3 0.0 3.0 49 55
r 1.23502 2 3 cbr 210 ------- 3 0.0 3.0 22 24
+ 1.23625 0 1 cbr 210 ------- 3 0.0 3.0 63 73
- 1.23625 0 1 cbr 210 ------- 3 0.0 3.0 63 73
r 1.23668 1 2 cbr 210 ------- 3 0.0 3.0 36 40
+ 1.23668 2 3 cbr 210 ------- 3 0.0 3.0 36 40
- 1.23668 2 3 cbr 210 ------- 3 0.0 3.0 36 40
r 1.23834 0 1 cbr 210 ------- 3 0.0 3.0 50 56
+ 1.23834 1 2 cbr 210 ------- 3 0.0 3.0 50 56
- 1.23834 1 2 cbr 210 ------- 3 0.0 3.0 50 56
r 1.23877 2 3 cbr 210 ------- 3 0.0 3.0 23 25
+ 1.24 0 1 cbr 210 ------- 3 0.0 3.0 64 74
- 1.24 0 1 cbr 210 ------- 3 0.0 3.0 64 74
r 1.24043 1 2 cbr 210 ------- 3 0.0 3.0 37 41
+ 1.24043 2 3 cbr 210 ------- 3 0.0 3.0 37 41
- 1.24043 2 3 cbr 210 ------- 3 0.0 3.0 37 41
r 1.24209 0 1 cbr 210 ------- 3 0.0 3.0 51 57
+ 1.24209 1 2 cbr 210 ------- 3 0.0 3.0 51 57
- 1.24209 1 2 cbr 210 ------- 3 0.0 3.0 51 57
r 1.24252 2 3 cbr 210 ------- 3 0.0 3.0 24 26
+ 1.24375 0 1 cbr 210 ------- 3 0.0 3.0 65 75
- 1.24375 0 1 cbr 210 ------- 3 0.0 3.0 65 75
r 1.24418 1 2 cbr 210 ------- 3 0.0 3.0 38 42
+ 1.24418 2 3 cbr 210 ------- 3 0.0 3.0 38 42
- 1.24418 2 3 cbr 210 ------- 3 0.0 3.0 38 42
r 1.24584 0 1 cbr 210 ------- 3 0.0 3.0 52 58
+ 1.24584 1 2 cbr 210 ------- 3 0.0 3.0 52 58
- 1.24584 1 2 cbr 210 ------- 3 0.0 3.0 52 58
r 1.24627 2 3 cbr 210 ------- 3 0.0 3.0 25 27
+ 1.2475 0 1 cbr 210 ------- 3 0.0 3.0 66 76
- 1.2475 0 1 cbr 210 ------- 3 0.0 3.0 66 76
r 1.24793 1 2 cbr 210 ------- 3 0.0 3.0 39 43
+ 1.24793 2 3 cbr 210 ------- 3 0.0 3.0 39 43
- 1.24793 2 3 cbr 210 ------- 3 0.0 3.0 39 43
r 1.24959 0 1 cbr 210 ------- 3 0.0 3.0 53 59
+ 1.24959 1 2 cbr 210 ------- 3 0.0 3.0 53 59
- 1.24959 1 2 cbr 210 ------- 3 0.0 3.0 53 59
r 1.25002 2 3 cbr 210 ------- 3 0.0 3.0 26 28
+ 1.25125 0 1 cbr 210 ------- 3 0.0 3.0 67 77
- 1.25125 0 1 cbr 210 ------- 3 0.0 3.0 67 77
r 1.25168 1 2 cbr 210 ------- 3 0.0 3.0 40 44
+ 1.25168 2 3 cbr 210 ------- 3 0.0 3.0 40 44
- 1.25168 2 3 cbr 210 ------- 3 0.0 3.0 40 44
r 1.25334 0 1 cbr 210 ------- 3 0.0 3.0 54 60
+ 1.25334 1 2 cbr 210 ------- 3 0.0 3.0 54 60
- 1.25334 1 2 cbr 210 ------- 3 0.0 3.0 54 60
r 1.25377 2 3 cbr 210 ------- 3 0.0 3.0 27 31
+ 1.255 0 1 cbr 210 ------- 3 0.0 3.0 68 78
- 1.255 0 1 cbr 210 ------- 3 0.0 3.0 68 78
r 1.25543 1 2 cbr 210 ------- 3 0.0 3.0 41 45
+ 1.25543 2 3 cbr 210 ------- 3 0.0 3.0 41 45
- 1.25543 2 3 cbr 210 ------- 3 0.0 3.0 41 45
r 1.25709 0 1 cbr 210 ------- 3 0.0 3.0 55 63
+ 1.25709 1 2 cbr 210 ------- 3 0.0 3.0 55 63
- 1.25709 1 2 cbr 210 ------- 3 0.0 3.0 55 63
r 1.25752 2 3 cbr 210 ------- 3 0.0 3.0 28 32
+ 1.25875 0 1 cbr 210 ------- 3 0.0 3.0 69 79
- 1.25875 0 1 cbr 210 ------- 3 0.0 3.0 69 79
r 1.25959 1 2 tcp 1040 ------- 4 1.0 2.0 3 61
+ 1.25959 2 1 ack 40 ------- 4 2.0 1.0 3 80
- 1.25959 2 1 ack 40 ------- 4 2.0 1.0 3 80
r 1.26084 0 1 cbr 210 ------- 3 0.0 3.0 56 66
+ 1.26084 1 2 cbr 210 ------- 3 0.0 3.0 56 66
- 1.26084 1 2 cbr 210 ------- 3 0.0 3.0 56 66
r 1.26127 2 3 cbr 210 ------- 3 0.0 3.0 29 33
+ 1.2625 0 1 cbr 210 ------- 3 0.0 3.0 70 81
- 1.2625 0 1 cbr 210 ------- 3 0.0 3.0 70 81
r 1.26375 1 2 tcp 1040 ------- 4 1.0 2.0 4 62
+ 1.26375 2 1 ack 40 ------- 4 2.0 1.0 4 82
- 1.26375 2 1 ack 40 ------- 4 2.0 1.0 4 82
r 1.26459 0 1 cbr 210 ------- 3 0.0 3.0 57 67
+ 1.26459 1 2 cbr 210 ------- 3 0.0 3.0 57 67
- 1.26459 1 2 cbr 210 ------- 3 0.0 3.0 57 67
r 1.26459 1 2 cbr 210 ------- 3 0.0 3.0 42 47
+ 1.26459 2 3 cbr 210 ------- 3 0.0 3.0 42 47
- 1.26459 2 3 cbr 210 ------- 3 0.0 3.0 42 47
r 1.26502 2 3 cbr 210 ------- 3 0.0 3.0 30 34
+ 1.26625 0 1 cbr 210 ------- 3 0.0 3.0 71 83
- 1.26625 0 1 cbr 210 ------- 3 0.0 3.0 71 83
r 1.26834 0 1 cbr 210 ------- 3 0.0 3.0 58 68
+ 1.26834 1 2 cbr 210 ------- 3 0.0 3.0 58 68
- 1.26834 1 2 cbr 210 ------- 3 0.0 3.0 58 68
r 1.26875 1 2 tcp 1040 ------- 4 1.0 2.0 5 64
+ 1.26875 2 1 ack 40 ------- 4 2.0 1.0 5 84
- 1.26875 2 1 ack 40 ------- 4 2.0 1.0 5 84
r 1.26877 2 3 cbr 210 ------- 3 0.0 3.0 31 35
+ 1.27 0 1 cbr 210 ------- 3 0.0 3.0 72 85
- 1.27 0 1 cbr 210 ------- 3 0.0 3.0 72 85
r 1.27209 0 1 cbr 210 ------- 3 0.0 3.0 59 69
+ 1.27209 1 2 cbr 210 ------- 3 0.0 3.0 59 69
- 1.27209 1 2 cbr 210 ------- 3 0.0 3.0 59 69
r 1.27252 2 3 cbr 210 ------- 3 0.0 3.0 32 36
r 1.27291 1 2 tcp 1040 ------- 4 1.0 2.0 6 65
+ 1.27291 2 1 ack 40 ------- 4 2.0 1.0 6 86
- 1.27291 2 1 ack 40 ------- 4 2.0 1.0 6 86
+ 1.27375 0 1 cbr 210 ------- 3 0.0 3.0 73 87
- 1.27375 0 1 cbr 210 ------- 3 0.0 3.0 73 87
r 1.27375 1 2 cbr 210 ------- 3 0.0 3.0 43 49
+ 1.27375 2 3 cbr 210 ------- 3 0.0 3.0 43 49
- 1.27375 2 3 cbr 210 ------- 3 0.0 3.0 43 49
r 1.27459 1 2 cbr 210 ------- 3 0.0 3.0 44 50
+ 1.27459 2 3 cbr 210 ------- 3 0.0 3.0 44 50
- 1.27459 2 3 cbr 210 ------- 3 0.0 3.0 44 50
r 1.27543 1 2 cbr 210 ------- 3 0.0 3.0 45 51
+ 1.27543 2 3 cbr 210 ------- 3 0.0 3.0 45 51
- 1.27543 2 3 cbr 210 ------- 3 0.0 3.0 45 51
r 1.27584 0 1 cbr 210 ------- 3 0.0 3.0 60 70
+ 1.27584 1 2 cbr 210 ------- 3 0.0 3.0 60 70
- 1.27584 1 2 cbr 210 ------- 3 0.0 3.0 60 70
r 1.27627 1 2 cbr 210 ------- 3 0.0 3.0 46 52
+ 1.27627 2 3 cbr 210 ------- 3 0.0 3.0 46 52
- 1.27627 2 3 cbr 210 ------- 3 0.0 3.0 46 52
r 1.27627 2 3 cbr 210 ------- 3 0.0 3.0 33 37
+ 1.2775 0 1 cbr 210 ------- 3 0.0 3.0 74 88
- 1.2775 0 1 cbr 210 ------- 3 0.0 3.0 74 88
r 1.27793 1 2 cbr 210 ------- 3 0.0 3.0 47 53
+ 1.27793 2 3 cbr 210 ------- 3 0.0 3.0 47 53
- 1.27793 2 3 cbr 210 ------- 3 0.0 3.0 47 53
r 1.27959 0 1 cbr 210 ------- 3 0.0 3.0 61 71
+ 1.27959 1 2 cbr 210 ------- 3 0.0 3.0 61 71
- 1.27959 1 2 cbr 210 ------- 3 0.0 3.0 61 71
r 1.28002 2 3 cbr 210 ------- 3 0.0 3.0 34 38
+ 1.28125 0 1 cbr 210 ------- 3 0.0 3.0 75 89
- 1.28125 0 1 cbr 210 ------- 3 0.0 3.0 75 89
r 1.28168 1 2 cbr 210 ------- 3 0.0 3.0 48 54
+ 1.28168 2 3 cbr 210 ------- 3 0.0 3.0 48 54
- 1.28168 2 3 cbr 210 ------- 3 0.0 3.0 48 54
r 1.28334 0 1 cbr 210 ------- 3 0.0 3.0 62 72
+ 1.28334 1 2 cbr 210 ------- 3 0.0 3.0 62 72
- 1.28334 1 2 cbr 210 ------- 3 0.0 3.0 62 72
r 1.28377 2 3 cbr 210 ------- 3 0.0 3.0 35 39
+ 1.285 0 1 cbr 210 ------- 3 0.0 3.0 76 90
- 1.285 0 1 cbr 210 ------- 3 0.0 3.0 76 90
r 1.28543 1 2 cbr 210 ------- 3 0.0 3.0 49 55
+ 1.28543 2 3 cbr 210 ------- 3 0.0 3.0 49 55
- 1.28543 2 3 cbr 210 ------- 3 0.0 3.0 49 55
r 1.28709 0 1 cbr 210 ------- 3 0.0 3.0 63 73
+ 1.28709 1 2 cbr 210 ------- 3 0.0 3.0 63 73
- 1.28709 1 2 cbr 210 ------- 3 0.0 3.0 63 73
r 1.28752 2 3 cbr 210 ------- 3 0.0 3.0 36 40
+ 1.28875 0 1 cbr 210 ------- 3 0.0 3.0 77 91
- 1.28875 0 1 cbr 210 ------- 3 0.0 3.0 77 91
r 1.28918 1 2 cbr 210 ------- 3 0.0 3.0 50 56
+ 1.28918 2 3 cbr 210 ------- 3 0.0 3.0 50 56
- 1.28918 2 3 cbr 210 ------- 3 0.0 3.0 50 56
r 1.29084 0 1 cbr 210 ------- 3 0.0 3.0 64 74
+ 1.29084 1 2 cbr 210 ------- 3 0.0 3.0 64 74
- 1.29084 1 2 cbr 210 ------- 3 0.0 3.0 64 74
r 1.29127 2 3 cbr 210 ------- 3 0.0 3.0 37 41
+ 1.2925 0 1 cbr 210 ------- 3 0.0 3.0 78 92
- 1.2925 0 1 cbr 210 ------- 3 0.0 3.0 78 92
r 1.29293 1 2 cbr 210 ------- 3 0.0 3.0 51 57
+ 1.29293 2 3 cbr 210 ------- 3 0.0 3.0 51 57
- 1.29293 2 3 cbr 210 ------- 3 0.0 3.0 51 57
r 1.29459 0 1 cbr 210 ------- 3 0.0 3.0 65 75
+ 1.29459 1 2 cbr 210 ------- 3 0.0 3.0 65 75
- 1.29459 1 2 cbr 210 ------- 3 0.0 3.0 65 75
r 1.29502 2 3 cbr 210 ------- 3 0.0 3.0 38 42
+ 1.29625 0 1 cbr 210 ------- 3 0.0 3.0 79 93
- 1.29625 0 1 cbr 210 ------- 3 0.0 3.0 79 93
r 1.29668 1 2 cbr 210 ------- 3 0.0 3.0 52 58
+ 1.29668 2 3 cbr 210 ------- 3 0.0 3.0 52 58
- 1.29668 2 3 cbr 210 ------- 3 0.0 3.0 52 58
r 1.29834 0 1 cbr 210 ------- 3 0.0 3.0 66 76
+ 1.29834 1 2 cbr 210 ------- 3 0.0 3.0 66 76
- 1.29834 1 2 cbr 210 ------- 3 0.0 3.0 66 76
r 1.29877 2 3 cbr 210 ------- 3 0.0 3.0 39 43
+ 1.3 0 1 cbr 210 ------- 3 0.0 3.0 80 94
- 1.3 0 1 cbr 210 ------- 3 0.0 3.0 80 94
r 1.30043 1 2 cbr 210 ------- 3 0.0 3.0 53 59
+ 1.30043 2 3 cbr 210 ------- 3 0.0 3.0 53 59
- 1.30043 2 3 cbr 210 ------- 3 0.0 3.0 53 59
r 1.30209 0 1 cbr 210 ------- 3 0.0 3.0 67 77
+ 1.30209 1 2 cbr 210 ------- 3 0.0 3.0 67 77
- 1.30209 1 2 cbr 210 ------- 3 0.0 3.0 67 77
r 1.30252 2 3 cbr 210 ------- 3 0.0 3.0 40 44
+ 1.30375 0 1 cbr 210 ------- 3 0.0 3.0 81 95
- 1.30375 0 1 cbr 210 ------- 3 0.0 3.0 81 95
r 1.30418 1 2 cbr 210 ------- 3 0.0 3.0 54 60
+ 1.30418 2 3 cbr 210 ------- 3 0.0 3.0 54 60
- 1.30418 2 3 cbr 210 ------- 3 0.0 3.0 54 60
r 1.30584 0 1 cbr 210 ------- 3 0.0 3.0 68 78
+ 1.30584 1 2 cbr 210 ------- 3 0.0 3.0 68 78
- 1.30584 1 2 cbr 210 ------- 3 0.0 3.0 68 78
r 1.30627 2 3 cbr 210 ------- 3 0.0 3.0 41 45
+ 1.3075 0 1 cbr 210 ------- 3 0.0 3.0 82 96
- 1.3075 0 1 cbr 210 ------- 3 0.0 3.0 82 96
r 1.30793 1 2 cbr 210 ------- 3 0.0 3.0 55 63
+ 1.30793 2 3 cbr 210 ------- 3 0.0 3.0 55 63
- 1.30793 2 3 cbr 210 ------- 3 0.0 3.0 55 63
r 1.30959 0 1 cbr 210 ------- 3 0.0 3.0 69 79
+ 1.30959 1 2 cbr 210 ------- 3 0.0 3.0 69 79
- 1.30959 1 2 cbr 210 ------- 3 0.0 3.0 69 79
r 1.30975 2 1 ack 40 ------- 4 2.0 1.0 3 80
+ 1.30975 1 2 tcp 1040 ------- 4 1.0 2.0 7 97
+ 1.30975 1 2 tcp 1040 ------- 4 1.0 2.0 8 98
- 1.31043 1 2 tcp 1040 ------- 4 1.0 2.0 7 97
+ 1.31125 0 1 cbr 210 ------- 3 0.0 3.0 83 99
- 1.31125 0 1 cbr 210 ------- 3 0.0 3.0 83 99
r 1.31168 1 2 cbr 210 ------- 3 0.0 3.0 56 66
+ 1.31168 2 3 cbr 210 ------- 3 0.0 3.0 56 66
- 1.31168 2 3 cbr 210 ------- 3 0.0 3.0 56 66
r 1.31334 0 1 cbr 210 ------- 3 0.0 3.0 70 81
+ 1.31334 1 2 cbr 210 ------- 3 0.0 3.0 70 81
r 1.31391 2 1 ack 40 ------- 4 2.0 1.0 4 82
+ 1.31391 1 2 tcp 1040 ------- 4 1.0 2.0 9 100
+ 1.31391 1 2 tcp 1040 ------- 4 1.0 2.0 10 101
- 1.31459 1 2 tcp 1040 ------- 4 1.0 2.0 8 98
+ 1.315 0 1 cbr 210 ------- 3 0.0 3.0 84 102
- 1.315 0 1 cbr 210 ------- 3 0.0 3.0 84 102
r 1.31543 1 2 cbr 210 ------- 3 0.0 3.0 57 67
+ 1.31543 2 3 cbr 210 ------- 3 0.0 3.0 57 67
- 1.31543 2 3 cbr 210 ------- 3 0.0 3.0 57 67
r 1.31543 2 3 cbr 210 ------- 3 0.0 3.0 42 47
r 1.31709 0 1 cbr 210 ------- 3 0.0 3.0 71 83
+ 1.31709 1 2 cbr 210 ------- 3 0.0 3.0 71 83
+ 1.31875 0 1 cbr 210 ------- 3 0.0 3.0 85 103
- 1.31875 0 1 cbr 210 ------- 3 0.0 3.0 85 103
- 1.31875 1 2 cbr 210 ------- 3 0.0 3.0 70 81
r 1.31891 2 1 ack 40 ------- 4 2.0 1.0 5 84
+ 1.31891 1 2 tcp 1040 ------- 4 1.0 2.0 11 104
+ 1.31891 1 2 tcp 1040 ------- 4 1.0 2.0 12 105
r 1.31918 1 2 cbr 210 ------- 3 0.0 3.0 58 68
+ 1.31918 2 3 cbr 210 ------- 3 0.0 3.0 58 68
- 1.31918 2 3 cbr 210 ------- 3 0.0 3.0 58 68
- 1.31959 1 2 tcp 1040 ------- 4 1.0 2.0 9 100
r 1.32084 0 1 cbr 210 ------- 3 0.0 3.0 72 85
+ 1.32084 1 2 cbr 210 ------- 3 0.0 3.0 72 85
+ 1.3225 0 1 cbr 210 ------- 3 0.0 3.0 86 106