V -t * -v 1.0a5 -a 0
A -t * -n 1 -p 0 -o 0x7fffffff -c 30 -a 1
A -t * -h 1 -m 1073741823 -s 0
c -t * -i 4 -n green
c -t * -i 5 -n black
c -t * -i 1 -n darkmagenta
c -t * -i 2 -n yellow
c -t * -i 3 -n blue
n -t * -a 0 -s 0 -S UP -v circle -c black -i black
n -t * -a 1 -s 1 -S UP -v circle -c black -i black
n -t * -a 2 -s 2 -S UP -v circle -c black -i black
n -t * -a 3 -s 3 -S UP -v circle -c black -i black
l -t * -s 0 -d 1 -S UP -r 2000000 -D 0.050000000000000003 -c black -o right
l -t * -s 1 -d 2 -S UP -r 2000000 -D 0.050000000000000003 -c black -o down-left
l -t * -s 2 -d 3 -S UP -r 2000000 -D 0.050000000000000003 -c black -o right
n -t 0 -s 0 -S DLABEL -l "NODE1" -L ""
n -t 0 -s 1 -S DLABEL -l "NODE2" -L ""
n -t 0 -s 2 -S DLABEL -l "NODE3" -L ""
n -t 0 -s 3 -S DLABEL -l "NODE4" -L ""
n -t 0 -s 0 -S COLOR -c blue -o black -i blue -I black
n -t 0 -s 1 -S COLOR -c blue -o black -i blue -I black
n -t 0 -s 2 -S COLOR -c blue -o black -i blue -I black
n -t 0 -s 3 -S COLOR -c blue -o black -i blue -I black
+ -t 1 -s 1 -d 2 -p tcp -e 40 -c 4 -i 0 -a 4 -x {1.0 2.0 0 ------- null}
- -t 1 -s 1 -d 2 -p tcp -e 40 -c 4 -i 0 -a 4 -x {1.0 2.0 0 ------- null}
h -t 1 -s 1 -d 2 -p tcp -e 40 -c 4 -i 0 -a 4 -x {1.0 2.0 -1 ------- null}
+ -t 1 -s 0 -d 1 -p cbr -e 210 -c 3 -i 1 -a 3 -x {0.0 3.0 0 ------- null}
- -t 1 -s 0 -d 1 -p cbr -e 210 -c 3 -i 1 -a 3 -x {0.0 3.0 0 ------- null}
h -t 1 -s 0 -d 1 -p cbr -e 210 -c 3 -i 1 -a 3 -x {0.0 3.0 -1 ------- null}
+ -t 1.00375 -s 0 -d 1 -p cbr -e 210 -c 3 -i 2 -a 3 -x {0.0 3.0 1 ------- null}
- -t 1.00375 -s 0 -d 1 -p cbr -e 210 -c 3 -i 2 -a 3 -x {0.0 3.0 1 ------- null}
h -t 1.00375 -s 0 -d 1 -p cbr -e 210 -c 3 -i 2 -a 3 -x {0.0 3.0 -1 ------- null}
+ -t 1.0075 -s 0 -d 1 -p cbr -e 210 -c 3 -i 3 -a 3 -x {0.0 3.0 2 ------- null}
- -t 1.0075 -s 0 -d 1 -p cbr -e 210 -c 3 -i 3 -a 3 -x {0.0 3.0 2 ------- null}
h -t 1.0075 -s 0 -d 1 -p cbr -e 210 -c 3 -i 3 -a 3 -x {0.0 3.0 -1 ------- null}
+ -t 1.01125 -s 0 -d 1 -p cbr -e 210 -c 3 -i 4 -a 3 -x {0.0 3.0 3 ------- null}
- -t 1.01125 -s 0 -d 1 -p cbr -e 210 -c 3 -i 4 -a 3 -x {0.0 3.0 3 ------- null}
h -t 1.01125 -s 0 -d 1 -p cbr -e 210 -c 3 -i 4 -a 3 -x {0.0 3.0 -1 ------- null}
+ -t 1.015 -s 0 -d 1 -p cbr -e 210 -c 3 -i 5 -a 3 -x {0.0 3.0 4 ------- null}
- -t 1.015 -s 0 -d 1 -p cbr -e 210 -c 3 -i 5 -a 3 -x {0.0 3.0 4 ------- null}
h -t 1.015 -s 0 -d 1 -p cbr -e 210 -c 3 -i 5 -a 3 -x {0.0 3.0 -1 ------- null}
+ -t 1.01875 -s 0 -d 1 -p cbr -e 210 -c 3 -i 6 -a 3 -x {0.0 3.0 5 ------- null}
- -t 1.01875 -s 0 -d 1 -p cbr -e 210 -c 3 -i 6 -a 3 -x {0.0 3.0 5 ------- null}
h -t 1.01875 -s 0 -d 1 -p cbr -e 210 -c 3 -i 6 -a 3 -x {0.0 3.0 -1 ------- null}
+ -t 1.0225 -s 0 -d 1 -p cbr -e 210 -c 3 -i 7 -a 3 -x {0.0 3.0 6 ------- null}
- -t 1.0225 -s 0 -d 1 -p cbr -e 210 -c 3 -i 7 -a 3 -x {0.0 3.0 6 ------- null}
h -t 1.0225 -s 0 -d 1 -p cbr -e 210 -c 3 -i 7 -a 3 -x {0.0 3.0 -1 ------- null}
+ -t 1.02625 -s 0 -d 1 -p cbr -e 210 -c 3 -i 8 -a 3 -x {0.0 3.0 7 ------- null}
- -t 1.02625 -s 0 -d 1 -p cbr -e 210 -c 3 -i 8 -a 3 -x {0.0 3.0 7 ------- null}
h -t 1.02625 -s 0 -d 1 -p cbr -e 210 -c 3 -i 8 -a 3 -x {0.0 3.0 -1 ------- null}
+ -t 1.03 -s 0 -d 1 -p cbr -e 210 -c 3 -i 9 -a 3 -x {0.0 3.0 8 ------- null}
- -t 1.03 -s 0 -d 1 -p cbr -e 210 -c 3 -i 9 -a 3 -x {0.0 3.0 8 ------- null}
h -t 1.03 -s 0 -d 1 -p cbr -e 210 -c 3 -i 9 -a 3 -x {0.0 3.0 -1 ------- null}
+ -t 1.03375 -s 0 -d 1 -p cbr -e 210 -c 3 -i 10 -a 3 -x {0.0 3.0 9 ------- null}
- -t 1.03375 -s 0 -d 1 -p cbr -e 210 -c 3 -i 10 -a 3 -x {0.0 3.0 9 ------- null}
h -t 1.03375 -s 0 -d 1 -p cbr -e 210 -c 3 -i 10 -a 3 -x {0.0 3.0 -1 ------- null}
+ -t 1.0375 -s 0 -d 1 -p cbr -e 210 -c 3 -i 11 -a 3 -x {0.0 3.0 10 ------- null}
- -t 1.0375 -s 0 -d 1 -p cbr -e 210 -c 3 -i 11 -a 3 -x {0.0 3.0 10 ------- null}
h -t 1.0375 -s 0 -d 1 -p cbr -e 210 -c 3 -i 11 -a 3 -x {0.0 3.0 -1 ------- null}
+ -t 1.04125 -s 0 -d 1 -p cbr -e 210 -c 3 -i 12 -a 3 -x {0.0 3.0 11 ------- null}
- -t 1.04125 -s 0 -d 1 -p cbr -e 210 -c 3 -i 12 -a 3 -x {0.0 3.0 11 ------- null}
h -t 1.04125 -s 0 -d 1 -p cbr -e 210 -c 3 -i 12 -a 3 -x {0.0 3.0 -1 ------- null}
+ -t 1.045 -s 0 -d 1 -p cbr -e 210 -c 3 -i 13 -a 3 -x {0.0 3.0 12 ------- null}
- -t 1.045 -s 0 -d 1 -p cbr -e 210 -c 3 -i 13 -a 3 -x {0.0 3.0 12 ------- null}
h -t 1.045 -s 0 -d 1 -p cbr -e 210 -c 3 -i 13 -a 3 -x {0.0 3.0 -1 ------- null}
+ -t 1.04875 -s 0 -d 1 -p cbr -e 210 -c 3 -i 14 -a 3 -x {0.0 3.0 13 ------- null}
- -t 1.04875 -s 0 -d 1 -p cbr -e 210 -c 3 -i 14 -a 3 -x {0.0 3.0 13 ------- null}
h -t 1.04875 -s 0 -d 1 -p cbr -e 210 -c 3 -i 14 -a 3 -x {0.0 3.0 -1 ------- null}
r -t 1.05016 -s 1 -d 2 -p tcp -e 40 -c 4 -i 0 -a 4 -x {1.0 2.0 0 ------- null}
+ -t 1.05016 -s 2 -d 1 -p ack -e 40 -c 4 -i 15 -a 4 -x {2.0 1.0 0 ------- null}
- -t 1.05016 -s 2 -d 1 -p ack -e 40 -c 4 -i 15 -a 4 -x {2.0 1.0 0 ------- null}
h -t 1.05016 -s 2 -d 1 -p ack -e 40 -c 4 -i 15 -a 4 -x {2.0 1.0 -1 ------- null}
r -t 1.05084 -s 0 -d 1 -p cbr -e 210 -c 3 -i 1 -a 3 -x {0.0 3.0 0 ------- null}
+ -t 1.05084 -s 1 -d 2 -p cbr -e 210 -c 3 -i 1 -a 3 -x {0.0 3.0 0 ------- null}
- -t 1.05084 -s 1 -d 2 -p cbr -e 210 -c 3 -i 1 -a 3 -x {0.0 3.0 0 ------- null}
h -t 1.05084 -s 1 -d 2 -p cbr -e 210 -c 3 -i 1 -a 3 -x {0.0 3.0 -1 ------- null}
+ -t 1.0525 -s 0 -d 1 -p cbr -e 210 -c 3 -i 16 -a 3 -x {0.0 3.0 14 ------- null}
- -t 1.0525 -s 0 -d 1 -p cbr -e 210 -c 3 -i 16 -a 3 -x {0.0 3.0 14 ------- null}
h -t 1.0525 -s 0 -d 1 -p cbr -e 210 -c 3 -i 16 -a 3 -x {0.0 3.0 -1 ------- null}
r -t 1.05459 -s 0 -d 1 -p cbr -e 210 -c 3 -i 2 -a 3 -x {0.0 3.0 1 ------- null}
+ -t 1.05459 -s 1 -d 2 -p cbr -e 210 -c 3 -i 2 -a 3 -x {0.0 3.0 1 ------- null}
- -t 1.05459 -s 1 -d 2 -p cbr -e 210 -c 3 -i 2 -a 3 -x {0.0 3.0 1 ------- null}
h -t 1.05459 -s 1 -d 2 -p cbr -e 210 -c 3 -i 2 -a 3 -x {0.0 3.0 -1 ------- null}
+ -t 1.05625 -s 0 -d 1 -p cbr -e 210 -c 3 -i 17 -a 3 -x {0.0 3.0 15 ------- null}
- -t 1.05625 -s 0 -d 1 -p cbr -e 210 -c 3 -i 17 -a 3 -x {0.0 3.0 15 ------- null}
h -t 1.05625 -s 0 -d 1 -p cbr -e 210 -c 3 -i 17 -a 3 -x {0.0 3.0 -1 ------- null}
r -t 1.05834 -s 0 -d 1 -p cbr -e 210 -c 3 -i 3 -a 3 -x {0.0 3.0 2 ------- null}
+ -t 1.05834 -s 1 -d 2 -p cbr -e 210 -c 3 -i 3 -a 3 -x {0.0 3.0 2 ------- null}
- -t 1.05834 -s 1 -d 2 -p cbr -e 210 -c 3 -i 3 -a 3 -x {0.0 3.0 2 ------- null}
h -t 1.05834 -s 1 -d 2 -p cbr -e 210 -c 3 -i 3 -a 3 -x {0.0 3.0 -1 ------- null}
+ -t 1.06 -s 0 -d 1 -p cbr -e 210 -c 3 -i 18 -a 3 -x {0.0 3.0 16 ------- null}
- -t 1.06 -s 0 -d 1 -p cbr -e 210 -c 3 -i 18 -a 3 -x {0.0 3.0 16 ------- null}
h -t 1.06 -s 0 -d 1 -p cbr -e 210 -c 3 -i 18 -a 3 -x {0.0 3.0 -1 ------- null}
r -t 1.06209 -s 0 -d 1 -p cbr -e 210 -c 3 -i 4 -a 3 -x {0.0 3.0 3 ------- null}
+ -t 1.06209 -s 1 -d 2 -p cbr -e 210 -c 3 -i 4 -a 3 -x {0.0 3.0 3 ------- null}
- -t 1.06209 -s 1 -d 2 -p cbr -e 210 -c 3 -i 4 -a 3 -x {0.0 3.0 3 ------- null}
h -t 1.06209 -s 1 -d 2 -p cbr -e 210 -c 3 -i 4 -a 3 -x {0.0 3.0 -1 ------- null}
+ -t 1.06375 -s 0 -d 1 -p cbr -e 210 -c 3 -i 19 -a 3 -x {0.0 3.0 17 ------- null}
- -t 1.06375 -s 0 -d 1 -p cbr -e 210 -c 3 -i 19 -a 3 -x {0.0 3.0 17 ------- null}
h -t 1.06375 -s 0 -d 1 -p cbr -e 210 -c 3 -i 19 -a 3 -x {0.0 3.0 -1 ------- null}
r -t 1.06584 -s 0 -d 1 -p cbr -e 210 -c 3 -i 5 -a 3 -x {0.0 3.0 4 ------- null}
+ -t 1.06584 -s 1 -d 2 -p cbr -e 210 -c 3 -i 5 -a 3 -x {0.0 3.0 4 ------- null}
- -t 1.06584 -s 1 -d 2 -p cbr -e 210 -c 3 -i 5 -a 3 -x {0.0 3.0 4 ------- null}
h -t 1.06584 -s 1 -d 2 -p cbr -e 210 -c 3 -i 5 -a 3 -x {0.0 3.0 -1 ------- null}
+ -t 1.0675 -s 0 -d 1 -p cbr -e 210 -c 3 -i 20 -a 3 -x {0.0 3.0 18 ------- null}
- -t 1.0675 -s 0 -d 1 -p cbr -e 210 -c 3 -i 20 -a 3 -x {0.0 3.0 18 ------- null}
h -t 1.0675 -s 0 -d 1 -p cbr -e 210 -c 3 -i 20 -a 3 -x {0.0 3.0 -1 ------- null}
r -t 1.06959 -s 0 -d 1 -p cbr -e 210 -c 3 -i 6 -a 3 -x {0.0 3.0 5 ------- null}
+ -t 1.06959 -s 1 -d 2 -p cbr -e 210 -c 3 -i 6 -a 3 -x {0.0 3.0 5 ------- null}
- -t 1.06959 -s 1 -d 2 -p cbr -e 210 -c 3 -i 6 -a 3 -x {0.0 3.0 5 ------- null}
h -t 1.06959 -s 1 -d 2 -p cbr -e 210 -c 3 -i 6 -a 3 -x {0.0 3.0 -1 ------- null}
+ -t 1.07125 -s 0 -d 1 -p cbr -e 210 -c 3 -i 21 -a 3 -x {0.0 3.0 19 ------- null}
- -t 1.07125 -s 0 -d 1 -p cbr -e 210 -c 3 -i 21 -a 3 -x {0.0 3.0 19 ------- null}
h -t 1.07125 -s 0 -d 1 -p cbr -e 210 -c 3 -i 21 -a 3 -x {0.0 3.0 -1 ------- null}
r -t 1.07334 -s 0 -d 1 -p cbr -e 210 -c 3 -i 7 -a 3 -x {0.0 3.0 6 ------- null}
+ -t 1.07334 -s 1 -d 2 -p cbr -e 210 -c 3 -i 7 -a 3 -x {0.0 3.0 6 ------- null}
- -t 1.07334 -s 1 -d 2 -p cbr -e 210 -c 3 -i 7 -a 3 -x {0.0 3.0 6 ------- null}
h -t 1.07334 -s 1 -d 2 -p cbr -e 210 -c 3 -i 7 -a 3 -x {0.0 3.0 -1 ------- null}
+ -t 1.075 -s 0 -d 1 -p cbr -e 210 -c 3 -i 22 -a 3 -x {0.0 3.0 20 ------- null}
- -t 1.075 -s 0 -d 1 -p cbr -e 210 -c 3 -i 22 -a 3 -x {0.0 3.0 20 ------- null}
h -t 1.075 -s 0 -d 1 -p cbr -e 210 -c 3 -i 22 -a 3 -x {0.0 3.0 -1 ------- null}
r -t 1.07709 -s 0 -d 1 -p cbr -e 210 -c 3 -i 8 -a 3 -x {0.0 3.0 7 ------- null}
+ -t 1.07709 -s 1 -d 2 -p cbr -e 210 -c 3 -i 8 -a 3 -x {0.0 3.0 7 ------- null}
- -t 1.07709 -s 1 -d 2 -p cbr -e 210 -c 3 -i 8 -a 3 -x {0.0 3.0 7 ------- null}
h -t 1.07709 -s 1 -d 2 -p cbr -e 210 -c 3 -i 8 -a 3 -x {0.0 3.0 -1 ------- null}
+ -t 1.07875 -s 0 -d 1 -p cbr -e 210 -c 3 -i 23 -a 3 -x {0.0 3.0 21 ------- null}
- -t 1.07875 -s 0 -d 1 -p cbr -e 210 -c 3 -i 23 -a 3 -x {0.0 3.0 21 ------- null}
h -t 1.07875 -s 0 -d 1 -p cbr -e 210 -c 3 -i 23 -a 3 -x {0.0 3.0 -1 ------- null}
r -t 1.08084 -s 0 -d 1 -p cbr -e 210 -c 3 -i 9 -a 3 -x {0.0 3.0 8 ------- null}
+ -t 1.08084 -s 1 -d 2 -p cbr -e 210 -c 3 -i 9 -a 3 -x {0.0 3.0 8 ------- null}
- -t 1.08084 -s 1 -d 2 -p cbr -e 210 -c 3 -i 9 -a 3 -x {0.0 3.0 8 ------- null}
h -t 1.08084 -s 1 -d 2 -p cbr -e 210 -c 3 -i 9 -a 3 -x {0.0 3.0 -1 ------- null}
+ -t 1.0825 -s 0 -d 1 -p cbr -e 210 -c 3 -i 24 -a 3 -x {0.0 3.0 22 ------- null}
- -t 1.0825 -s 0 -d 1 -p cbr -e 210 -c 3 -i 24 -a 3 -x {0.0 3.0 22 ------- null}
h -t 1.0825 -s 0 -d 1 -p cbr -e 210 -c 3 -i 24 -a 3 -x {0.0 3.0 -1 ------- null}
r -t 1.08459 -s 0 -d 1 -p cbr -e 210 -c 3 -i 10 -a 3 -x {0.0 3.0 9 ------- null}
+ -t 1.08459 -s 1 -d 2 -p cbr -e 210 -c 3 -i 10 -a 3 -x {0.0 3.0 9 ------- null}
- -t 1.08459 -s 1 -d 2 -p cbr -e 210 -c 3 -i 10 -a 3 -x {0.0 3.0 9 ------- null}
h -t 1.08459 -s 1 -d 2 -p cbr -e 210 -c 3 -i 10 -a 3 -x {0.0 3.0 -1 ------- null}
+ -t 1.08625 -s 0 -d 1 -p cbr -e 210 -c 3 -i 25 -a 3 -x {0.0 3.0 23 ------- null}
- -t 1.08625 -s 0 -d 1 -p cbr -e 210 -c 3 -i 25 -a 3 -x {0.0 3.0 23 ------- null}
h -t 1.08625 -s 0 -d 1 -p cbr -e 210 -c 3 -i 25 -a 3 -x {0.0 3.0 -1 ------- null}
r -t 1.08834 -s 0 -d 1 -p cbr -e 210 -c 3 -i 11 -a 3 -x {0.0 3.0 10 ------- null}
+ -t 1.08834 -s 1 -d 2 -p cbr -e 210 -c 3 -i 11 -a 3 -x {0.0 3.0 10 ------- null}
- -t 1.08834 -s 1 -d 2 -p cbr -e 210 -c 3 -i 11 -a 3 -x {0.0 3.0 10 ------- null}
h -t 1.08834 -s 1 -d 2 -p cbr -e 210 -c 3 -i 11 -a 3 -x {0.0 3.0 -1 ------- null}
+ -t 1.09 -s 0 -d 1 -p cbr -e 210 -c 3 -i 26 -a 3 -x {0.0 3.0 24 ------- null}
- -t 1.09 -s 0 -d 1 -p cbr -e 210 -c 3 -i 26 -a 3 -x {0.0 3.0 24 ------- null}
h -t 1.09 -s 0 -d 1 -p cbr -e 210 -c 3 -i 26 -a 3 -x {0.0 3.0 -1 ------- null}
r -t 1.09209 -s 0 -d 1 -p cbr -e 210 -c 3 -i 12 -a 3 -x {0.0 3.0 11 ------- null}
+ -t 1.09209 -s 1 -d 2 -p cbr -e 210 -c 3 -i 12 -a 3 -x {0.0 3.0 11 ------- null}
- -t 1.09209 -s 1 -d 2 -p cbr -e 210 -c 3 -i 12 -a 3 -x {0.0 3.0 11 ------- null}
h -t 1.09209 -s 1 -d 2 -p cbr -e 210 -c 3 -i 12 -a 3 -x {0.0 3.0 -1 ------- null}
+ -t 1.09375 -s 0 -d 1 -p cbr -e 210 -c 3 -i 27 -a 3 -x {0.0 3.0 25 ------- null}
- -t 1.09375 -s 0 -d 1 -p cbr -e 210 -c 3 -i 27 -a 3 -x {0.0 3.0 25 ------- null}
h -t 1.09375 -s 0 -d 1 -p cbr -e 210 -c 3 -i 27 -a 3 -x {0.0 3.0 -1 ------- null}
r -t 1.09584 -s 0 -d 1 -p cbr -e 210 -c 3 -i 13 -a 3 -x {0.0 3.0 12 ------- null}
+ -t 1.09584 -s 1 -d 2 -p cbr -e 210 -c 3 -i 13 -a 3 -x {0.0 3.0 12 ------- null}
- -t 1.09584 -s 1 -d 2 -p cbr -e 210 -c 3 -i 13 -a 3 -x {0.0 3.0 12 ------- null}
h -t 1.09584 -s 1 -d 2 -p cbr -e 210 -c 3 -i 13 -a 3 -x {0.0 3.0 -1 ------- null}
+ -t 1.0975 -s 0 -d 1 -p cbr -e 210 -c 3 -i 28 -a 3 -x {0.0 3.0 26 ------- null}
- -t 1.0975 -s 0 -d 1 -p cbr -e 210 -c 3 -i 28 -a 3 -x {0.0 3.0 26 ------- null}
h -t 1.0975 -s 0 -d 1 -p cbr -e 210 -c 3 -i 28 -a 3 -x {0.0 3.0 -1 ------- null}
r -t 1.09959 -s 0 -d 1 -p cbr -e 210 -c 3 -i 14 -a 3 -x {0.0 3.0 13 ------- null}
+ -t 1.09959 -s 1 -d 2 -p cbr -e 210 -c 3 -i 14 -a 3 -x {0.0 3.0 13 ------- null}
- -t 1.09959 -s 1 -d 2 -p cbr -e 210 -c 3 -i 14 -a 3 -x {0.0 3.0 13 ------- null}
h -t 1.09959 -s 1 -d 2 -p cbr -e 210 -c 3 -i 14 -a 3 -x {0.0 3.0 -1 ------- null}
r -t 1.10032 -s 2 -d 1 -p ack -e 40 -c 4 -i 15 -a 4 -x {2.0 1.0 0 ------- null}
+ -t 1.10032 -s 1 -d 2 -p tcp -e 1040 -c 4 -i 29 -a 4 -x {1.0 2.0 1 ------- null}
+ -t 1.10032 -s 1 -d 2 -p tcp -e 1040 -c 4 -i 30 -a 4 -x {1.0 2.0 2 ------- null}
- -t 1.10043 -s 1 -d 2 -p tcp -e 1040 -c 4 -i 29 -a 4 -x {1.0 2.0 1 ------- null}
h -t 1.10043 -s 1 -d 2 -p tcp -e 1040 -c 4 -i 29 -a 4 -x {1.0 2.0 -1 ------- null}
+ -t 1.10125 -s 0 -d 1 -p cbr -e 210 -c 3 -i 31 -a 3 -x {0.0 3.0 27 ------- null}
- -t 1.10125 -s 0 -d 1 -p cbr -e 210 -c 3 -i 31 -a 3 -x {0.0 3.0 27 ------- null}
h -t 1.10125 -s 0 -d 1 -p cbr -e 210 -c 3 -i 31 -a 3 -x {0.0 3.0 -1 ------- null}
r -t 1.10168 -s 1 -d 2 -p cbr -e 210 -c 3 -i 1 -a 3 -x {0.0 3.0 0 ------- null}
+ -t 1.10168 -s 2 -d 3 -p cbr -e 210 -c 3 -i 1 -a 3 -x {0.0 3.0 0 ------- null}
- -t 1.10168 -s 2 -d 3 -p cbr -e 210 -c 3 -i 1 -a 3 -x {0.0 3.0 0 ------- null}
h -t 1.10168 -s 2 -d 3 -p cbr -e 210 -c 3 -i 1 -a 3 -x {0.0 3.0 -1 ------- null}
r -t 1.10334 -s 0 -d 1 -p cbr -e 210 -c 3 -i 16 -a 3 -x {0.0 3.0 14 ------- null}
+ -t 1.10334 -s 1 -d 2 -p cbr -e 210 -c 3 -i 16 -a 3 -x {0.0 3.0 14 ------- null}
- -t 1.10459 -s 1 -d 2 -p tcp -e 1040 -c 4 -i 30 -a 4 -x {1.0 2.0 2 ------- null}
h -t 1.10459 -s 1 -d 2 -p tcp -e 1040 -c 4 -i 30 -a 4 -x {1.0 2.0 -1 ------- null}
+ -t 1.105 -s 0 -d 1 -p cbr -e 210 -c 3 -i 32 -a 3 -x {0.0 3.0 28 ------- null}
- -t 1.105 -s 0 -d 1 -p cbr -e 210 -c 3 -i 32 -a 3 -x {0.0 3.0 28 ------- null}
h -t 1.105 -s 0 -d 1 -p cbr -e 210 -c 3 -i 32 -a 3 -x {0.0 3.0 -1 ------- null}
r -t 1.10543 -s 1 -d 2 -p cbr -e 210 -c 3 -i 2 -a 3 -x {0.0 3.0 1 ------- null}
+ -t 1.10543 -s 2 -d 3 -p cbr -e 210 -c 3 -i 2 -a 3 -x {0.0 3.0 1 ------- null}
- -t 1.10543 -s 2 -d 3 -p cbr -e 210 -c 3 -i 2 -a 3 -x {0.0 3.0 1 ------- null}
h -t 1.10543 -s 2 -d 3 -p cbr -e 210 -c 3 -i 2 -a 3 -x {0.0 3.0 -1 ------- null}
r -t 1.10709 -s 0 -d 1 -p cbr -e 210 -c 3 -i 17 -a 3 -x {0.0 3.0 15 ------- null}
+ -t 1.10709 -s 1 -d 2 -p cbr -e 210 -c 3 -i 17 -a 3 -x {0.0 3.0 15 ------- null}
+ -t 1.10875 -s 0 -d 1 -p cbr -e 210 -c 3 -i 33 -a 3 -x {0.0 3.0 29 ------- null}
- -t 1.10875 -s 0 -d 1 -p cbr -e 210 -c 3 -i 33 -a 3 -x {0.0 3.0 29 ------- null}
h -t 1.10875 -s 0 -d 1 -p cbr -e 210 -c 3 -i 33 -a 3 -x {0.0 3.0 -1 ------- null}
- -t 1.10875 -s 1 -d 2 -p cbr -e 210 -c 3 -i 16 -a 3 -x {0.0 3.0 14 ------- null}
h -t 1.10875 -s 1 -d 2 -p cbr -e 210 -c 3 -i 16 -a 3 -x {0.0 3.0 -1 ------- null}
r -t 1.10918 -s 1 -d 2 -p cbr -e 210 -c 3 -i 3 -a 3 -x {0.0 3.0 2 ------- null}
+ -t 1.10918 -s 2 -d 3 -p cbr -e 210 -c 3 -i 3 -a 3 -x {0.0 3.0 2 ------- null}
- -t 1.10918 -s 2 -d 3 -p cbr -e 210 -c 3 -i 3 -a 3 -x {0.0 3.0 2 ------- null}
h -t 1.10918 -s 2 -d 3 -p cbr -e 210 -c 3 -i 3 -a 3 -x {0.0 3.0 -1 ------- null}
- -t 1.10959 -s 1 -d 2 -p cbr -e 210 -c 3 -i 17 -a 3 -x {0.0 3.0 15 ------- null}
h -t 1.10959 -s 1 -d 2 -p cbr -e 210 -c 3 -i 17 -a 3 -x {0.0 3.0 -1 ------- null}
r -t 1.11084 -s 0 -d 1 -p cbr -e 210 -c 3 -i 18 -a 3 -x {0.0 3.0 16 ------- null}
+ -t 1.11084 -s 1 -d 2 -p cbr -e 210 -c 3 -i 18 -a 3 -x {0.0 3.0 16 ------- null}
- -t 1.11084 -s 1 -d 2 -p cbr -e 210 -c 3 -i 18 -a 3 -x {0.0 3.0 16 ------- null}
h -t 1.11084 -s 1 -d 2 -p cbr -e 210 -c 3 -i 18 -a 3 -x {0.0 3.0 -1 ------- null}
+ -t 1.1125 -s 0 -d 1 -p cbr -e 210 -c 3 -i 34 -a 3 -x {0.0 3.0 30 ------- null}
- -t 1.1125 -s 0 -d 1 -p cbr -e 210 -c 3 -i 34 -a 3 -x {0.0 3.0 30 ------- null}
h -t 1.1125 -s 0 -d 1 -p cbr -e 210 -c 3 -i 34 -a 3 -x {0.0 3.0 -1 ------- null}
r -t 1.11293 -s 1 -d 2 -p cbr -e 210 -c 3 -i 4 -a 3 -x {0.0 3.0 3 ------- null}
+ -t 1.11293 -s 2 -d 3 -p cbr -e 210 -c 3 -i 4 -a 3 -x {0.0 3.0 3 ------- null}
- -t 1.11293 -s 2 -d 3 -p cbr -e 210 -c 3 -i 4 -a 3 -x {0.0 3.0 3 ------- null}
h -t 1.11293 -s 2 -d 3 -p cbr -e 210 -c 3 -i 4 -a 3 -x {0.0 3.0 -1 ------- null}
r -t 1.11459 -s 0 -d 1 -p cbr -e 210 -c 3 -i 19 -a 3 -x {0.0 3.0 17 ------- null}
+ -t 1.11459 -s 1 -d 2 -p cbr -e 210 -c 3 -i 19 -a 3 -x {0.0 3.0 17 ------- null}
- -t 1.11459 -s 1 -d 2 -p cbr -e 210 -c 3 -i 19 -a 3 -x {0.0 3.0 17 ------- null}
h -t 1.11459 -s 1 -d 2 -p cbr -e 210 -c 3 -i 19 -a 3 -x {0.0 3.0 -1 ------- null}
+ -t 1.11625 -s 0 -d 1 -p cbr -e 210 -c 3 -i 35 -a 3 -x {0.0 3.0 31 ------- null}
- -t 1.11625 -s 0 -d 1 -p cbr -e 210 -c 3 -i 35 -a 3 -x {0.0 3.0 31 ------- null}
h -t 1.11625 -s 0 -d 1 -p cbr -e 210 -c 3 -i 35 -a 3 -x {0.0 3.0 -1 ------- null}
r -t 1.11668 -s 1 -d 2 -p cbr -e 210 -c 3 -i 5 -a 3 -x {0.0 3.0 4 ------- null}
+ -t 1.11668 -s 2 -d 3 -p cbr -e 210 -c 3 -i 5 -a 3 -x {0.0 3.0 4 ------- null}
- -t 1.11668 -s 2 -d 3 -p cbr -e 210 -c 3 -i 5 -a 3 -x {0.0 3.0 4 ------- null}
h -t 1.11668 -s 2 -d 3 -p cbr -e 210 -c 3 -i 5 -a 3 -x {0.0 3.0 -1 ------- null}
r -t 1.11834 -s 0 -d 1 -p cbr -e 210 -c 3 -i 20 -a 3 -x {0.0 3.0 18 ------- null}
+ -t 1.11834 -s 1 -d 2 -p cbr -e 210 -c 3 -i 20 -a 3 -x {0.0 3.0 18 ------- null}
- -t 1.11834 -s 1 -d 2 -p cbr -e 210 -c 3 -i 20 -a 3 -x {0.0 3.0 18 ------- null}
h -t 1.11834 -s 1 -d 2 -p cbr -e 210 -c 3 -i 20 -a 3 -x {0.0 3.0 -1 ------- null}
+ -t 1.12 -s 0 -d 1 -p cbr -e 210 -c 3 -i 36 -a 3 -x {0.0 3.0 32 ------- null}
- -t 1.12 -s 0 -d 1 -p cbr -e 210 -c 3 -i 36 -a 3 -x {0.0 3.0 32 ------- null}
h -t 1.12 -s 0 -d 1 -p cbr -e 210 -c 3 -i 36 -a 3 -x {0.0 3.0 -1 ------- null}
r -t 1.12043 -s 1 -d 2 -p cbr -e 210 -c 3 -i 6 -a 3 -x {0.0 3.0 5 ------- null}
+ -t 1.12043 -s 2 -d 3 -p cbr -e 210 -c 3 -i 6 -a 3 -x {0.0 3.0 5 ------- null}
- -t 1.12043 -s 2 -d 3 -p cbr -e 210 -c 3 -i 6 -a 3 -x {0.0 3.0 5 ------- null}
h -t 1.12043 -s 2 -d 3 -p cbr -e 210 -c 3 -i 6 -a 3 -x {0.0 3.0 -1 ------- null}
r -t 1.12209 -s 0 -d 1 -p cbr -e 210 -c 3 -i 21 -a 3 -x {0.0 3.0 19 ------- null}
+ -t 1.12209 -s 1 -d 2 -p cbr -e 210 -c 3 -i 21 -a 3 -x {0.0 3.0 19 ------- null}
- -t 1.12209 -s 1 -d 2 -p cbr -e 210 -c 3 -i 21 -a 3 -x {0.0 3.0 19 ------- null}
h -t 1.12209 -s 1 -d 2 -p cbr -e 210 -c 3 -i 21 -a 3 -x {0.0 3.0 -1 ------- null}
+ -t 1.12375 -s 0 -d 1 -p cbr -e 210 -c 3 -i 37 -a 3 -x {0.0 3.0 33 ------- null}
- -t 1.12375 -s 0 -d 1 -p cbr -e 210 -c 3 -i 37 -a 3 -x {0.0 3.0 33 ------- null}
h -t 1.12375 -s 0 -d 1 -p cbr -e 210 -c 3 -i 37 -a 3 -x {0.0 3.0 -1 ------- null}
r -t 1.12418 -s 1 -d 2 -p cbr -e 210 -c 3 -i 7 -a 3 -x {0.0 3.0 6 ------- null}
+ -t 1.12418 -s 2 -d 3 -p cbr -e 210 -c 3 -i 7 -a 3 -x {0.0 3.0 6 ------- null}
- -t 1.12418 -s 2 -d 3 -p cbr -e 210 -c 3 -i 7 -a 3 -x {0.0 3.0 6 ------- null}
h -t 1.12418 -s 2 -d 3 -p cbr -e 210 -c 3 -i 7 -a 3 -x {0.0 3.0 -1 ------- null}
r -t 1.12584 -s 0 -d 1 -p cbr -e 210 -c 3 -i 22 -a 3 -x {0.0 3.0 20 ------- null}
+ -t 1.12584 -s 1 -d 2 -p cbr -e 210 -c 3 -i 22 -a 3 -x {0.0 3.0 20 ------- null}
- -t 1.12584 -s 1 -d 2 -p cbr -e 210 -c 3 -i 22 -a 3 -x {0.0 3.0 20 ------- null}
h -t 1.12584 -s 1 -d 2 -p cbr -e 210 -c 3 -i 22 -a 3 -x {0.0 3.0 -1 ------- null}
+ -t 1.1275 -s 0 -d 1 -p cbr -e 210 -c 3 -i 38 -a 3 -x {0.0 3.0 34 ------- null}
- -t 1.1275 -s 0 -d 1 -p cbr -e 210 -c 3 -i 38 -a 3 -x {0.0 3.0 34 ------- null}
h -t 1.1275 -s 0 -d 1 -p cbr -e 210 -c 3 -i 38 -a 3 -x {0.0 3.0 -1 ------- null}
r -t 1.12793 -s 1 -d 2 -p cbr -e 210 -c 3 -i 8 -a 3 -x {0.0 3.0 7 ------- null}
+ -t 1.12793 -s 2 -d 3 -p cbr -e 210 -c 3 -i 8 -a 3 -x {0.0 3.0 7 ------- null}
- -t 1.12793 -s 2 -d 3 -p cbr -e 210 -c 3 -i 8 -a 3 -x {0.0 3.0 7 ------- null}
h -t 1.12793 -s 2 -d 3 -p cbr -e 210 -c 3 -i 8 -a 3 -x {0.0 3.0 -1 ------- null}
r -t 1.12959 -s 0 -d 1 -p cbr -e 210 -c 3 -i 23 -a 3 -x {0.0 3.0 21 ------- null}
+ -t 1.12959 -s 1 -d 2 -p cbr -e 210 -c 3 -i 23 -a 3 -x {0.0 3.0 21 ------- null}
- -t 1.12959 -s 1 -d 2 -p cbr -e 210 -c 3 -i 23 -a 3 -x {0.0 3.0 21 ------- null}
h -t 1.12959 -s 1 -d 2 -p cbr -e 210 -c 3 -i 23 -a 3 -x {0.0 3.0 -1 ------- null}
+ -t 1.13125 -s 0 -d 1 -p cbr -e 210 -c 3 -i 39 -a 3 -x {0.0 3.0 35 ------- null}
- -t 1.13125 -s 0 -d 1 -p cbr -e 210 -c 3 -i 39 -a 3 -x {0.0 3.0 35 ------- null}
h -t 1.13125 -s 0 -d 1 -p cbr -e 210 -c 3 -i 39 -a 3 -x {0.0 3.0 -1 ------- null}
r -t 1.13168 -s 1 -d 2 -p cbr -e 210 -c 3 -i 9 -a 3 -x {0.0 3.0 8 ------- null}
+ -t 1.13168 -s 2 -d 3 -p cbr -e 210 -c 3 -i 9 -a 3 -x {0.0 3.0 8 ------- null}
- -t 1.13168 -s 2 -d 3 -p cbr -e 210 -c 3 -i 9 -a 3 -x {0.0 3.0 8 ------- null}
h -t 1.13168 -s 2 -d 3 -p cbr -e 210 -c 3 -i 9 -a 3 -x {0.0 3.0 -1 ------- null}
r -t 1.13334 -s 0 -d 1 -p cbr -e 210 -c 3 -i 24 -a 3 -x {0.0 3.0 22 ------- null}
+ -t 1.13334 -s 1 -d 2 -p cbr -e 210 -c 3 -i 24 -a 3 -x {0.0 3.0 22 ------- null}
- -t 1.13334 -s 1 -d 2 -p cbr -e 210 -c 3 -i 24 -a 3 -x {0.0 3.0 22 ------- null}
h -t 1.13334 -s 1 -d 2 -p cbr -e 210 -c 3 -i 24 -a 3 -x {0.0 3.0 -1 ------- null}
+ -t 1.135 -s 0 -d 1 -p cbr -e 210 -c 3 -i 40 -a 3 -x {0.0 3.0 36 ------- null}
- -t 1.135 -s 0 -d 1 -p cbr -e 210 -c 3 -i 40 -a 3 -x {0.0 3.0 36 ------- null}
h -t 1.135 -s 0 -d 1 -p cbr -e 210 -c 3 -i 40 -a 3 -x {0.0 3.0 -1 ------- null}
r -t 1.13543 -s 1 -d 2 -p cbr -e 210 -c 3 -i 10 -a 3 -x {0.0 3.0 9 ------- null}
+ -t 1.13543 -s 2 -d 3 -p cbr -e 210 -c 3 -i 10 -a 3 -x {0.0 3.0 9 ------- null}
- -t 1.13543 -s 2 -d 3 -p cbr -e 210 -c 3 -i 10 -a 3 -x {0.0 3.0 9 ------- null}
h -t 1.13543 -s 2 -d 3 -p cbr -e 210 -c 3 -i 10 -a 3 -x {0.0 3.0 -1 ------- null}
r -t 1.13709 -s 0 -d 1 -p cbr -e 210 -c 3 -i 25 -a 3 -x {0.0 3.0 23 ------- null}
+ -t 1.13709 -s 1 -d 2 -p cbr -e 210 -c 3 -i 25 -a 3 -x {0.0 3.0 23 ------- null}
- -t 1.13709 -s 1 -d 2 -p cbr -e 210 -c 3 -i 25 -a 3 -x {0.0 3.0 23 ------- null}
h -t 1.13709 -s 1 -d 2 -p cbr -e 210 -c 3 -i 25 -a 3 -x {0.0 3.0 -1 ------- null}
+ -t 1.13875 -s 0 -d 1 -p cbr -e 210 -c 3 -i 41 -a 3 -x {0.0 3.0 37 ------- null}
- -t 1.13875 -s 0 -d 1 -p cbr -e 210 -c 3 -i 41 -a 3 -x {0.0 3.0 37 ------- null}
h -t 1.13875 -s 0 -d 1 -p cbr -e 210 -c 3 -i 41 -a 3 -x {0.0 3.0 -1 ------- null}
r -t 1.13918 -s 1 -d 2 -p cbr -e 210 -c 3 -i 11 -a 3 -x {0.0 3.0 10 ------- null}
+ -t 1.13918 -s 2 -d 3 -p cbr -e 210 -c 3 -i 11 -a 3 -x {0.0 3.0 10 ------- null}
- -t 1.13918 -s 2 -d 3 -p cbr -e 210 -c 3 -i 11 -a 3 -x {0.0 3.0 10 ------- null}
h -t 1.13918 -s 2 -d 3 -p cbr -e 210 -c 3 -i 11 -a 3 -x {0.0 3.0 -1 ------- null}
r -t 1.14084 -s 0 -d 1 -p cbr -e 210 -c 3 -i 26 -a 3 -x {0.0 3.0 24 ------- null}
+ -t 1.14084 -s 1 -d 2 -p cbr -e 210 -c 3 -i 26 -a 3 -x {0.0 3.0 24 ------- null}
- -t 1.14084 -s 1 -d 2 -p cbr -e 210 -c 3 -i 26 -a 3 -x {0.0 3.0 24 ------- null}
h -t 1.14084 -s 1 -d 2 -p cbr -e 210 -c 3 -i 26 -a 3 -x {0.0 3.0 -1 ------- null}
+ -t 1.1425 -s 0 -d 1 -p cbr -e 210 -c 3 -i 42 -a 3 -x {0.0 3.0 38 ------- null}
- -t 1.1425 -s 0 -d 1 -p cbr -e 210 -c 3 -i 42 -a 3 -x {0.0 3.0 38 ------- null}
h -t 1.1425 -s 0 -d 1 -p cbr -e 210 -c 3 -i 42 -a 3 -x {0.0 3.0 -1 ------- null}
r -t 1.14293 -s 1 -d 2 -p cbr -e 210 -c 3 -i 12 -a 3 -x {0.0 3.0 11 ------- null}
+ -t 1.14293 -s 2 -d 3 -p cbr -e 210 -c 3 -i 12 -a 3 -x {0.0 3.0 11 ------- null}
- -t 1.14293 -s 2 -d 3 -p cbr -e 210 -c 3 -i 12 -a 3 -x {0.0 3.0 11 ------- null}
h -t 1.14293 -s 2 -d 3 -p cbr -e 210 -c 3 -i 12 -a 3 -x {0.0 3.0 -1 ------- null}
r -t 1.14459 -s 0 -d 1 -p cbr -e 210 -c 3 -i 27 -a 3 -x {0.0 3.0 25 ------- null}
+ -t 1.14459 -s 1 -d 2 -p cbr -e 210 -c 3 -i 27 -a 3 -x {0.0 3.0 25 ------- null}
- -t 1.14459 -s 1 -d 2 -p cbr -e 210 -c 3 -i 27 -a 3 -x {0.0 3.0 25 ------- null}
h -t 1.14459 -s 1 -d 2 -p cbr -e 210 -c 3 -i 27 -a 3 -x {0.0 3.0 -1 ------- null}
+ -t 1.14625 -s 0 -d 1 -p cbr -e 210 -c 3 -i 43 -a 3 -x {0.0 3.0 39 ------- null}
- -t 1.14625 -s 0 -d 1 -p cbr -e 210 -c 3 -i 43 -a 3 -x {0.0 3.0 39 ------- null}
h -t 1.14625 -s 0 -d 1 -p cbr -e 210 -c 3 -i 43 -a 3 -x {0.0 3.0 -1 ------- null}
r -t 1.14668 -s 1 -d 2 -p cbr -e 210 -c 3 -i 13 -a 3 -x {0.0 3.0 12 ------- null}
+ -t 1.14668 -s 2 -d 3 -p cbr -e 210 -c 3 -i 13 -a 3 -x {0.0 3.0 12 ------- null}
- -t 1.14668 -s 2 -d 3 -p cbr -e 210 -c 3 -i 13 -a 3 -x {0.0 3.0 12 ------- null}
h -t 1.14668 -s 2 -d 3 -p cbr -e 210 -c 3 -i 13 -a 3 -x {0.0 3.0 -1 ------- null}
r -t 1.14834 -s 0 -d 1 -p cbr -e 210 -c 3 -i 28 -a 3 -x {0.0 3.0 26 ------- null}
+ -t 1.14834 -s 1 -d 2 -p cbr -e 210 -c 3 -i 28 -a 3 -x {0.0 3.0 26 ------- null}
- -t 1.14834 -s 1 -d 2 -p cbr -e 210 -c 3 -i 28 -a 3 -x {0.0 3.0 26 ------- null}
h -t 1.14834 -s 1 -d 2 -p cbr -e 210 -c 3 -i 28 -a 3 -x {0.0 3.0 -1 ------- null}
+ -t 1.15 -s 0 -d 1 -p cbr -e 210 -c 3 -i 44 -a 3 -x {0.0 3.0 40 ------- null}
- -t 1.15 -s 0 -d 1 -p cbr -e 210 -c 3 -i 44 -a 3 -x {0.0 3.0 40 ------- null}
h -t 1.15 -s 0 -d 1 -p cbr -e 210 -c 3 -i 44 -a 3 -x {0.0 3.0 -1 ------- null}
r -t 1.15043 -s 1 -d 2 -p cbr -e 210 -c 3 -i 14 -a 3 -x {0.0 3.0 13 ------- null}
+ -t 1.15043 -s 2 -d 3 -p cbr -e 210 -c 3 -i 14 -a 3 -x {0.0 3.0 13 ------- null}
- -t 1.15043 -s 2 -d 3 -p cbr -e 210 -c 3 -i 14 -a 3 -x {0.0 3.0 13 ------- null}
h -t 1.15043 -s 2 -d 3 -p cbr -e 210 -c 3 -i 14 -a 3 -x {0.0 3.0 -1 ------- null}
r -t 1.15209 -s 0 -d 1 -p cbr -e 210 -c 3 -i 31 -a 3 -x {0.0 3.0 27 ------- null}
+ -t 1.15209 -s 1 -d 2 -p cbr -e 210 -c 3 -i 31 -a 3 -x {0.0 3.0 27 ------- null}
- -t 1.15209 -s 1 -d 2 -p cbr -e 210 -c 3 -i 31 -a 3 -x {0.0 3.0 27 ------- null}
h -t 1.15209 -s 1 -d 2 -p cbr -e 210 -c 3 -i 31 -a 3 -x {0.0 3.0 -1 ------- null}
r -t 1.15252 -s 2 -d 3 -p cbr -e 210 -c 3 -i 1 -a 3 -x {0.0 3.0 0 ------- null}
+ -t 1.15375 -s 0 -d 1 -p cbr -e 210 -c 3 -i 45 -a 3 -x {0.0 3.0 41 ------- null}
- -t 1.15375 -s 0 -d 1 -p cbr -e 210 -c 3 -i 45 -a 3 -x {0.0 3.0 41 ------- null}
h -t 1.15375 -s 0 -d 1 -p cbr -e 210 -c 3 -i 45 -a 3 -x {0.0 3.0 -1 ------- null}
r -t 1.15459 -s 1 -d 2 -p tcp -e 1040 -c 4 -i 29 -a 4 -x {1.0 2.0 1 ------- null}
+ -t 1.15459 -s 2 -d 1 -p ack -e 40 -c 4 -i 46 -a 4 -x {2.0 1.0 1 ------- null}
- -t 1.15459 -s 2 -d 1 -p ack -e 40 -c 4 -i 46 -a 4 -x {2.0 1.0 1 ------- null}
h -t 1.15459 -s 2 -d 1 -p ack -e 40 -c 4 -i 46 -a 4 -x {2.0 1.0 -1 ------- null}
r -t 1.15584 -s 0 -d 1 -p cbr -e 210 -c 3 -i 32 -a 3 -x {0.0 3.0 28 ------- null}
+ -t 1.15584 -s 1 -d 2 -p cbr -e 210 -c 3 -i 32 -a 3 -x {0.0 3.0 28 ------- null}
- -t 1.15584 -s 1 -d 2 -p cbr -e 210 -c 3 -i 32 -a 3 -x {0.0 3.0 28 ------- null}
h -t 1.15584 -s 1 -d 2 -p cbr -e 210 -c 3 -i 32 -a 3 -x {0.0 3.0 -1 ------- null}
r -t 1.15627 -s 2 -d 3 -p cbr -e 210 -c 3 -i 2 -a 3 -x {0.0 3.0 1 ------- null}
+ -t 1.1575 -s 0 -d 1 -p cbr -e 210 -c 3 -i 47 -a 3 -x {0.0 3.0 42 ------- null}
- -t 1.1575 -s 0 -d 1 -p cbr -e 210 -c 3 -i 47 -a 3 -x {0.0 3.0 42 ------- null}
h -t 1.1575 -s 0 -d 1 -p cbr -e 210 -c 3 -i 47 -a 3 -x {0.0 3.0 -1 ------- null}
r -t 1.15875 -s 1 -d 2 -p tcp -e 1040 -c 4 -i 30 -a 4 -x {1.0 2.0 2 ------- null}
+ -t 1.15875 -s 2 -d 1 -p ack -e 40 -c 4 -i 48 -a 4 -x {2.0 1.0 2 ------- null}
- -t 1.15875 -s 2 -d 1 -p ack -e 40 -c 4 -i 48 -a 4 -x {2.0 1.0 2 ------- null}
h -t 1.15875 -s 2 -d 1 -p ack -e 40 -c 4 -i 48 -a 4 -x {2.0 1.0 -1 ------- null}
r -t 1.15959 -s 0 -d 1 -p cbr -e 210 -c 3 -i 33 -a 3 -x {0.0 3.0 29 ------- null}
+ -t 1.15959 -s 1 -d 2 -p cbr -e 210 -c 3 -i 33 -a 3 -x {0.0 3.0 29 ------- null}
- -t 1.15959 -s 1 -d 2 -p cbr -e 210 -c 3 -i 33 -a 3 -x {0.0 3.0 29 ------- null}
h -t 1.15959 -s 1 -d 2 -p cbr -e 210 -c 3 -i 33 -a 3 -x {0.0 3.0 -1 ------- null}
r -t 1.15959 -s 1 -d 2 -p cbr -e 210 -c 3 -i 16 -a 3 -x {0.0 3.0 14 ------- null}
+ -t 1.15959 -s 2 -d 3 -p cbr -e 210 -c 3 -i 16 -a 3 -x {0.0 3.0 14 ------- null}
- -t 1.15959 -s 2 -d 3 -p cbr -e 210 -c 3 -i 16 -a 3 -x {0.0 3.0 14 ------- null}
h -t 1.15959 -s 2 -d 3 -p cbr -e 210 -c 3 -i 16 -a 3 -x {0.0 3.0 -1 ------- null}
r -t 1.16002 -s 2 -d 3 -p cbr -e 210 -c 3 -i 3 -a 3 -x {0.0 3.0 2 ------- null}
r -t 1.16043 -s 1 -d 2 -p cbr -e 210 -c 3 -i 17 -a 3 -x {0.0 3.0 15 ------- null}
+ -t 1.16043 -s 2 -d 3 -p cbr -e 210 -c 3 -i 17 -a 3 -x {0.0 3.0 15 ------- null}
- -t 1.16043 -s 2 -d 3 -p cbr -e 210 -c 3 -i 17 -a 3 -x {0.0 3.0 15 ------- null}
h -t 1.16043 -s 2 -d 3 -p cbr -e 210 -c 3 -i 17 -a 3 -x {0.0 3.0 -1 ------- null}
+ -t 1.16125 -s 0 -d 1 -p cbr -e 210 -c 3 -i 49 -a 3 -x {0.0 3.0 43 ------- null}
- -t 1.16125 -s 0 -d 1 -p cbr -e 210 -c 3 -i 49 -a 3 -x {0.0 3.0 43 ------- null}
h -t 1.16125 -s 0 -d 1 -p cbr -e 210 -c 3 -i 49 -a 3 -x {0.0 3.0 -1 ------- null}
r -t 1.16168 -s 1 -d 2 -p cbr -e 210 -c 3 -i 18 -a 3 -x {0.0 3.0 16 ------- null}
+ -t 1.16168 -s 2 -d 3 -p cbr -e 210 -c 3 -i 18 -a 3 -x {0.0 3.0 16 ------- null}
- -t 1.16168 -s 2 -d 3 -p cbr -e 210 -c 3 -i 18 -a 3 -x {0.0 3.0 16 ------- null}
h -t 1.16168 -s 2 -d 3 -p cbr -e 210 -c 3 -i 18 -a 3 -x {0.0 3.0 -1 ------- null}
r -t 1.16334 -s 0 -d 1 -p cbr -e 210 -c 3 -i 34 -a 3 -x {0.0 3.0 30 ------- null}
+ -t 1.16334 -s 1 -d 2 -p cbr -e 210 -c 3 -i 34 -a 3 -x {0.0 3.0 30 ------- null}
- -t 1.16334 -s 1 -d 2 -p cbr -e 210 -c 3 -i 34 -a 3 -x {0.0 3.0 30 ------- null}
h -t 1.16334 -s 1 -d 2 -p cbr -e 210 -c 3 -i 34 -a 3 -x {0.0 3.0 -1 ------- null}
r -t 1.16377 -s 2 -d 3 -p cbr -e 210 -c 3 -i 4 -a 3 -x {0.0 3.0 3 ------- null}
+ -t 1.165 -s 0 -d 1 -p cbr -e 210 -c 3 -i 50 -a 3 -x {0.0 3.0 44 ------- null}
- -t 1.165 -s 0 -d 1 -p cbr -e 210 -c 3 -i 50 -a 3 -x {0.0 3.0 44 ------- null}
h -t 1.165 -s 0 -d 1 -p cbr -e 210 -c 3 -i 50 -a 3 -x {0.0 3.0 -1 ------- null}
r -t 1.16543 -s 1 -d 2 -p cbr -e 210 -c 3 -i 19 -a 3 -x {0.0 3.0 17 ------- null}
+ -t 1.16543 -s 2 -d 3 -p cbr -e 210 -c 3 -i 19 -a 3 -x {0.0 3.0 17 ------- null}
- -t 1.16543 -s 2 -d 3 -p cbr -e 210 -c 3 -i 19 -a 3 -x {0.0 3.0 17 ------- null}
h -t 1.16543 -s 2 -d 3 -p cbr -e 210 -c 3 -i 19 -a 3 -x {0.0 3.0 -1 ------- null}