s 0.032821055 _1_ RTR  --- 0 message 32 [0 0 0 0] ------- [1:255 -1:255 32 0] 
s 0.178591360 _2_ RTR  --- 1 message 32 [0 0 0 0] ------- [2:255 -1:255 32 0] 
s 1.113402886 _0_ RTR  --- 2 message 32 [0 0 0 0] ------- [0:255 -1:255 32 0] 
M 10.00000 0 (5.00, 5.00, 0.00), (250.00, 250.00), 3.00
s 10.000000000 _0_ AGT  --- 3 tcp 40 [0 0 0 0] ------- [0:0 1:0 32 0] [0 0] 0 0
r 10.000000000 _0_ RTR  --- 3 tcp 40 [0 0 0 0] ------- [0:0 1:0 32 0] [0 0] 0 0
s 12.530838300 _0_ RTR  --- 4 message 32 [0 0 0 0] ------- [0:255 -1:255 32 0] 
s 13.000000000 _0_ AGT  --- 5 tcp 40 [0 0 0 0] ------- [0:0 1:0 32 0] [0 0] 0 0
r 13.000000000 _0_ RTR  --- 5 tcp 40 [0 0 0 0] ------- [0:0 1:0 32 0] [0 0] 0 0
s 13.830059915 _2_ RTR  --- 6 message 32 [0 0 0 0] ------- [2:255 -1:255 32 0] 
s 14.280428760 _1_ RTR  --- 7 message 32 [0 0 0 0] ------- [1:255 -1:255 32 0] 
M 15.00000 1 (490.00, 285.00, 0.00), (45.00, 285.00), 5.00
s 19.000000000 _0_ AGT  --- 8 tcp 40 [0 0 0 0] ------- [0:0 1:0 32 0] [0 0] 0 0
r 19.000000000 _0_ RTR  --- 8 tcp 40 [0 0 0 0] ------- [0:0 1:0 32 0] [0 0] 0 0
s 25.369352037 _0_ RTR  --- 9 message 32 [0 0 0 0] ------- [0:255 -1:255 32 0] 
r 25.370532808 _2_ RTR  --- 9 message 32 [0 ffffffff 0 800] ------- [0:255 -1:255 32 0] 
s 26.386541965 _2_ RTR  --- 10 message 32 [0 0 0 0] ------- [2:255 -1:255 32 0] 
r 26.387502727 _0_ RTR  --- 10 message 32 [0 ffffffff 2 800] ------- [2:255 -1:255 32 0] 
s 27.274269018 _1_ RTR  --- 11 message 32 [0 0 0 0] ------- [1:255 -1:255 32 0] 
s 31.000000000 _0_ AGT  --- 12 tcp 40 [0 0 0 0] ------- [0:0 1:0 32 0] [0 0] 0 0
r 31.000000000 _0_ RTR  --- 12 tcp 40 [0 0 0 0] ------- [0:0 1:0 32 0] [0 0] 0 0
s 37.379995458 _2_ RTR  --- 13 message 32 [0 0 0 0] ------- [2:255 -1:255 32 0] 
r 37.381016115 _0_ RTR  --- 13 message 32 [0 ffffffff 2 800] ------- [2:255 -1:255 32 0] 
r 37.381016233 _1_ RTR  --- 13 message 32 [0 ffffffff 2 800] ------- [2:255 -1:255 32 0] 
s 37.425885784 _0_ RTR  --- 14 message 32 [0 0 0 0] ------- [0:255 -1:255 32 0] 
r 37.427046440 _2_ RTR  --- 14 message 32 [0 ffffffff 0 800] ------- [0:255 -1:255 32 0] 
s 38.426532792 _0_ RTR  --- 15 message 32 [0 0 0 0] ------- [0:255 -1:255 32 0] 
r 38.427533439 _2_ RTR  --- 15 message 32 [0 ffffffff 0 800] ------- [0:255 -1:255 32 0] 
s 40.045941996 _1_ RTR  --- 16 message 32 [0 0 0 0] ------- [1:255 -1:255 32 0] 
r 40.046982728 _2_ RTR  --- 16 message 32 [0 ffffffff 1 800] ------- [1:255 -1:255 32 0] 
s 40.493686470 _2_ RTR  --- 17 message 32 [0 0 0 0] ------- [2:255 -1:255 32 0] 
r 40.494587098 _0_ RTR  --- 17 message 32 [0 ffffffff 2 800] ------- [2:255 -1:255 32 0] 
r 40.494587195 _1_ RTR  --- 17 message 32 [0 ffffffff 2 800] ------- [2:255 -1:255 32 0] 
s 48.717695168 _0_ RTR  --- 18 message 32 [0 0 0 0] ------- [0:255 -1:255 32 0] 
r 48.718815719 _2_ RTR  --- 18 message 32 [0 ffffffff 0 800] ------- [0:255 -1:255 32 0] 
s 49.383083573 _1_ RTR  --- 19 message 32 [0 0 0 0] ------- [1:255 -1:255 32 0] 
r 49.384384153 _2_ RTR  --- 19 message 32 [0 ffffffff 1 800] ------- [1:255 -1:255 32 0] 
s 52.056742795 _2_ RTR  --- 20 message 32 [0 0 0 0] ------- [2:255 -1:255 32 0] 
r 52.057863315 _0_ RTR  --- 20 message 32 [0 ffffffff 2 800] ------- [2:255 -1:255 32 0] 
s 52.057863315 _0_ RTR  --- 3 tcp 80 [0 0 0 0] ------- [0:0 1:0 32 2] [0 0] 0 0
s 52.057863315 _0_ RTR  --- 5 tcp 80 [0 0 0 0] ------- [0:0 1:0 32 2] [0 0] 0 0
D 52.057863315 _0_ IFQ  ARP 3 tcp 80 [0 0 0 800] ------- [0:0 1:0 32 2] [0 0] 0 0
s 52.057863315 _0_ RTR  --- 8 tcp 80 [0 0 0 0] ------- [0:0 1:0 32 2] [0 0] 0 0
D 52.057863315 _0_ IFQ  ARP 5 tcp 80 [0 0 0 800] ------- [0:0 1:0 32 2] [0 0] 0 0
s 52.057863315 _0_ RTR  --- 12 tcp 80 [0 0 0 0] ------- [0:0 1:0 32 2] [0 0] 0 0
D 52.057863315 _0_ RTR  CBK 8 tcp 80 [0 0 0 800] ------- [0:0 1:0 32 2] [0 0] 0 0
D 52.057863315 _0_ RTR  CBK 12 tcp 80 [0 0 0 800] ------- [0:0 1:0 32 2] [0 0] 0 0
r 52.057863332 _1_ RTR  --- 20 message 32 [0 ffffffff 2 800] ------- [2:255 -1:255 32 0] 
s 53.339318058 _1_ RTR  --- 21 message 56 [0 0 0 0] ------- [1:255 -1:255 32 0] 
s 53.340326492 _2_ RTR  --- 22 message 44 [0 0 0 0] ------- [2:255 -1:255 32 0] 
r 53.340910574 _2_ RTR  --- 21 message 56 [0 ffffffff 1 800] ------- [1:255 -1:255 32 0] 
r 53.341897083 _0_ RTR  --- 22 message 44 [0 ffffffff 2 800] ------- [2:255 -1:255 32 0] 
r 53.341897091 _1_ RTR  --- 22 message 44 [0 ffffffff 2 800] ------- [2:255 -1:255 32 0] 
s 55.000000000 _0_ AGT  --- 23 tcp 40 [0 0 0 0] ------- [0:0 1:0 32 0] [0 0] 0 0
r 55.000000000 _0_ RTR  --- 23 tcp 40 [0 0 0 0] ------- [0:0 1:0 32 0] [0 0] 0 0
s 55.000000000 _0_ RTR  --- 23 tcp 60 [0 0 0 0] ------- [0:0 1:0 32 2] [0 0] 0 0
r 55.002261481 _2_ RTR  --- 23 tcp 60 [13a 2 0 800] ------- [0:0 1:0 32 2] [0 0] 1 0
f 55.002261481 _2_ RTR  --- 23 tcp 60 [13a 2 0 800] ------- [0:0 1:0 31 1] [0 0] 1 0
r 55.007399911 _1_ AGT  --- 23 tcp 60 [13a 1 2 800] ------- [0:0 1:0 31 1] [0 0] 2 0
s 55.007399911 _1_ AGT  --- 24 ack 40 [0 0 0 0] ------- [1:0 0:0 32 0] [0 0] 0 0
r 55.007399911 _1_ RTR  --- 24 ack 40 [0 0 0 0] ------- [1:0 0:0 32 0] [0 0] 0 0
s 55.007399911 _1_ RTR  --- 24 ack 60 [0 0 0 0] ------- [1:0 0:0 32 2] [0 0] 0 0
r 55.009945382 _2_ RTR  --- 24 ack 60 [13a 2 1 800] ------- [1:0 0:0 32 2] [0 0] 1 0
f 55.009945382 _2_ RTR  --- 24 ack 60 [13a 2 1 800] ------- [1:0 0:0 31 0] [0 0] 1 0
r 55.012110862 _0_ AGT  --- 24 ack 60 [13a 0 2 800] ------- [1:0 0:0 31 0] [0 0] 2 0
s 55.012110862 _0_ AGT  --- 25 tcp 1040 [0 0 0 0] ------- [0:0 1:0 32 0] [1 0] 0 0
r 55.012110862 _0_ RTR  --- 25 tcp 1040 [0 0 0 0] ------- [0:0 1:0 32 0] [1 0] 0 0
s 55.012110862 _0_ RTR  --- 25 tcp 1060 [0 0 0 0] ------- [0:0 1:0 32 2] [1 0] 0 0
r 55.022536342 _2_ RTR  --- 25 tcp 1060 [13a 2 0 800] ------- [0:0 1:0 32 2] [1 0] 1 0
f 55.022536342 _2_ RTR  --- 25 tcp 1060 [13a 2 0 800] ------- [0:0 1:0 31 1] [1 0] 1 0
r 55.032641812 _1_ AGT  --- 25 tcp 1060 [13a 1 2 800] ------- [0:0 1:0 31 1] [1 0] 2 0
s 55.032641812 _1_ AGT  --- 26 ack 40 [0 0 0 0] ------- [1:0 0:0 32 0] [1 0] 0 0
r 55.032641812 _1_ RTR  --- 26 ack 40 [0 0 0 0] ------- [1:0 0:0 32 0] [1 0] 0 0
s 55.032641812 _1_ RTR  --- 26 ack 60 [0 0 0 0] ------- [1:0 0:0 32 2] [1 0] 0 0
r 55.034847281 _2_ RTR  --- 26 ack 60 [13a 2 1 800] ------- [1:0 0:0 32 2] [1 0] 1 0
f 55.034847281 _2_ RTR  --- 26 ack 60 [13a 2 1 800] ------- [1:0 0:0 31 0] [1 0] 1 0
r 55.036972761 _0_ AGT  --- 26 ack 60 [13a 0 2 800] ------- [1:0 0:0 31 0] [1 0] 2 0
s 55.036972761 _0_ AGT  --- 27 tcp 1040 [0 0 0 0] ------- [0:0 1:0 32 0] [2 0] 0 0
r 55.036972761 _0_ RTR  --- 27 tcp 1040 [0 0 0 0] ------- [0:0 1:0 32 0] [2 0] 0 0
s 55.036972761 _0_ RTR  --- 27 tcp 1060 [0 0 0 0] ------- [0:0 1:0 32 2] [2 0] 0 0
s 55.036972761 _0_ AGT  --- 28 tcp 1040 [0 0 0 0] ------- [0:0 1:0 32 0] [3 0] 0 0
r 55.036972761 _0_ RTR  --- 28 tcp 1040 [0 0 0 0] ------- [0:0 1:0 32 0] [3 0] 0 0
s 55.036972761 _0_ RTR  --- 28 tcp 1060 [0 0 0 0] ------- [0:0 1:0 32 2] [3 0] 0 0
r 55.047278240 _2_ RTR  --- 27 tcp 1060 [13a 2 0 800] ------- [0:0 1:0 32 2] [2 0] 1 0
f 55.047278240 _2_ RTR  --- 27 tcp 1060 [13a 2 0 800] ------- [0:0 1:0 31 1] [2 0] 1 0
r 55.057383709 _1_ AGT  --- 27 tcp 1060 [13a 1 2 800] ------- [0:0 1:0 31 1] [2 0] 2 0
s 55.057383709 _1_ AGT  --- 29 ack 40 [0 0 0 0] ------- [1:0 0:0 32 0] [2 0] 0 0
r 55.057383709 _1_ RTR  --- 29 ack 40 [0 0 0 0] ------- [1:0 0:0 32 0] [2 0] 0 0
s 55.057383709 _1_ RTR  --- 29 ack 60 [0 0 0 0] ------- [1:0 0:0 32 2] [2 0] 0 0
r 55.059549176 _2_ RTR  --- 29 ack 60 [13a 2 1 800] ------- [1:0 0:0 32 2] [2 0] 1 0
f 55.059549176 _2_ RTR  --- 29 ack 60 [13a 2 1 800] ------- [1:0 0:0 31 0] [2 0] 1 0
r 55.061694655 _0_ AGT  --- 29 ack 60 [13a 0 2 800] ------- [1:0 0:0 31 0] [2 0] 2 0
s 55.061694655 _0_ AGT  --- 30 tcp 1040 [0 0 0 0] ------- [0:0 1:0 32 0] [4 0] 0 0
r 55.061694655 _0_ RTR  --- 30 tcp 1040 [0 0 0 0] ------- [0:0 1:0 32 0] [4 0] 0 0
s 55.061694655 _0_ RTR  --- 30 tcp 1060 [0 0 0 0] ------- [0:0 1:0 32 2] [4 0] 0 0
r 55.071980134 _2_ RTR  --- 28 tcp 1060 [13a 2 0 800] ------- [0:0 1:0 32 2] [3 0] 1 0
f 55.071980134 _2_ RTR  --- 28 tcp 1060 [13a 2 0 800] ------- [0:0 1:0 31 1] [3 0] 1 0
r 55.082066106 _2_ RTR  --- 30 tcp 1060 [13a 2 0 800] ------- [0:0 1:0 32 2] [4 0] 1 0
f 55.082066106 _2_ RTR  --- 30 tcp 1060 [13a 2 0 800] ------- [0:0 1:0 31 1] [4 0] 1 0
r 55.092211573 _1_ AGT  --- 28 tcp 1060 [13a 1 2 800] ------- [0:0 1:0 31 1] [3 0] 2 0
s 55.092211573 _1_ AGT  --- 31 ack 40 [0 0 0 0] ------- [1:0 0:0 32 0] [3 0] 0 0
r 55.092211573 _1_ RTR  --- 31 ack 40 [0 0 0 0] ------- [1:0 0:0 32 0] [3 0] 0 0
s 55.092211573 _1_ RTR  --- 31 ack 60 [0 0 0 0] ------- [1:0 0:0 32 2] [3 0] 0 0
r 55.094257039 _2_ RTR  --- 31 ack 60 [13a 2 1 800] ------- [1:0 0:0 32 2] [3 0] 1 0
f 55.094257039 _2_ RTR  --- 31 ack 60 [13a 2 1 800] ------- [1:0 0:0 31 0] [3 0] 1 0
r 55.104722505 _1_ AGT  --- 30 tcp 1060 [13a 1 2 800] ------- [0:0 1:0 31 1] [4 0] 2 0
s 55.104722505 _1_ AGT  --- 32 ack 40 [0 0 0 0] ------- [1:0 0:0 32 0] [4 0] 0 0
r 55.104722505 _1_ RTR  --- 32 ack 40 [0 0 0 0] ------- [1:0 0:0 32 0] [4 0] 0 0
s 55.104722505 _1_ RTR  --- 32 ack 60 [0 0 0 0] ------- [1:0 0:0 32 2] [4 0] 0 0
r 55.106847970 _2_ RTR  --- 32 ack 60 [13a 2 1 800] ------- [1:0 0:0 32 2] [4 0] 1 0
f 55.106847970 _2_ RTR  --- 32 ack 60 [13a 2 1 800] ------- [1:0 0:0 31 0] [4 0] 1 0
r 55.109133448 _0_ AGT  --- 31 ack 60 [13a 0 2 800] ------- [1:0 0:0 31 0] [3 0] 2 0
s 55.109133448 _0_ AGT  --- 33 tcp 1040 [0 0 0 0] ------- [0:0 1:0 32 0] [5 0] 0 0
r 55.109133448 _0_ RTR  --- 33 tcp 1040 [0 0 0 0] ------- [0:0 1:0 32 0] [5 0] 0 0
s 55.109133448 _0_ RTR  --- 33 tcp 1060 [0 0 0 0] ------- [0:0 1:0 32 2] [5 0] 0 0
r 55.119138926 _2_ RTR  --- 33 tcp 1060 [13a 2 0 800] ------- [0:0 1:0 32 2] [5 0] 1 0
f 55.119138926 _2_ RTR  --- 33 tcp 1060 [13a 2 0 800] ------- [0:0 1:0 31 1] [5 0] 1 0
r 55.121184403 _0_ AGT  --- 32 ack 60 [13a 0 2 800] ------- [1:0 0:0 31 0] [4 0] 2 0
s 55.121184403 _0_ AGT  --- 34 tcp 1040 [0 0 0 0] ------- [0:0 1:0 32 0] [6 0] 0 0
r 55.121184403 _0_ RTR  --- 34 tcp 1040 [0 0 0 0] ------- [0:0 1:0 32 0] [6 0] 0 0
s 55.121184403 _0_ RTR  --- 34 tcp 1060 [0 0 0 0] ------- [0:0 1:0 32 2] [6 0] 0 0
s 55.121184403 _0_ AGT  --- 35 tcp 1040 [0 0 0 0] ------- [0:0 1:0 32 0] [7 0] 0 0
r 55.121184403 _0_ RTR  --- 35 tcp 1040 [0 0 0 0] ------- [0:0 1:0 32 0] [7 0] 0 0
s 55.121184403 _0_ RTR  --- 35 tcp 1060 [0 0 0 0] ------- [0:0 1:0 32 2] [7 0] 0 0
r 55.131190361 _1_ AGT  --- 33 tcp 1060 [13a 1 2 800] ------- [0:0 1:0 31 1] [5 0] 2 0
s 55.131190361 _1_ AGT  --- 36 ack 40 [0 0 0 0] ------- [1:0 0:0 32 0] [5 0] 0 0
r 55.131190361 _1_ RTR  --- 36 ack 40 [0 0 0 0] ------- [1:0 0:0 32 0] [5 0] 0 0
s 55.131190361 _1_ RTR  --- 36 ack 60 [0 0 0 0] ------- [1:0 0:0 32 2] [5 0] 0 0
r 55.133195825 _2_ RTR  --- 36 ack 60 [13a 2 1 800] ------- [1:0 0:0 32 2] [5 0] 1 0
f 55.133195825 _2_ RTR  --- 36 ack 60 [13a 2 1 800] ------- [1:0 0:0 31 0] [5 0] 1 0
r 55.143431693 _2_ RTR  --- 34 tcp 1060 [13a 2 0 800] ------- [0:0 1:0 32 2] [6 0] 1 0
f 55.143431693 _2_ RTR  --- 34 tcp 1060 [13a 2 0 800] ------- [0:0 1:0 31 1] [6 0] 1 0
r 55.145557170 _0_ AGT  --- 36 ack 60 [13a 0 2 800] ------- [1:0 0:0 31 0] [5 0] 2 0
s 55.145557170 _0_ AGT  --- 37 tcp 1040 [0 0 0 0] ------- [0:0 1:0 32 0] [8 0] 0 0
r 55.145557170 _0_ RTR  --- 37 tcp 1040 [0 0 0 0] ------- [0:0 1:0 32 0] [8 0] 0 0
s 55.145557170 _0_ RTR  --- 37 tcp 1060 [0 0 0 0] ------- [0:0 1:0 32 2] [8 0] 0 0
r 55.155802646 _2_ RTR  --- 35 tcp 1060 [13a 2 0 800] ------- [0:0 1:0 32 2] [7 0] 1 0
f 55.155802646 _2_ RTR  --- 35 tcp 1060 [13a 2 0 800] ------- [0:0 1:0 31 1] [7 0] 1 0
r 55.166028110 _1_ AGT  --- 34 tcp 1060 [13a 1 2 800] ------- [0:0 1:0 31 1] [6 0] 2 0
s 55.166028110 _1_ AGT  --- 38 ack 40 [0 0 0 0] ------- [1:0 0:0 32 0] [6 0] 0 0
r 55.166028110 _1_ RTR  --- 38 ack 40 [0 0 0 0] ------- [1:0 0:0 32 0] [6 0] 0 0
s 55.166028110 _1_ RTR  --- 38 ack 60 [0 0 0 0] ------- [1:0 0:0 32 2] [6 0] 0 0
r 55.168193572 _2_ RTR  --- 38 ack 60 [13a 2 1 800] ------- [1:0 0:0 32 2] [6 0] 1 0
f 55.168193572 _2_ RTR  --- 38 ack 60 [13a 2 1 800] ------- [1:0 0:0 31 0] [6 0] 1 0
r 55.178329439 _2_ RTR  --- 37 tcp 1060 [13a 2 0 800] ------- [0:0 1:0 32 2] [8 0] 1 0
f 55.178329439 _2_ RTR  --- 37 tcp 1060 [13a 2 0 800] ------- [0:0 1:0 31 1] [8 0] 1 0
r 55.188554901 _1_ AGT  --- 35 tcp 1060 [13a 1 2 800] ------- [0:0 1:0 31 1] [7 0] 2 0
s 55.188554901 _1_ AGT  --- 39 ack 40 [0 0 0 0] ------- [1:0 0:0 32 0] [7 0] 0 0
r 55.188554901 _1_ RTR  --- 39 ack 40 [0 0 0 0] ------- [1:0 0:0 32 0] [7 0] 0 0
s 55.188554901 _1_ RTR  --- 39 ack 60 [0 0 0 0] ------- [1:0 0:0 32 2] [7 0] 0 0
r 55.190540864 _0_ AGT  --- 38 ack 60 [13a 0 2 800] ------- [1:0 0:0 31 0] [6 0] 2 0
s 55.190540864 _0_ AGT  --- 40 tcp 1040 [0 0 0 0] ------- [0:0 1:0 32 0] [9 0] 0 0
r 55.190540864 _0_ RTR  --- 40 tcp 1040 [0 0 0 0] ------- [0:0 1:0 32 0] [9 0] 0 0
s 55.190540864 _0_ RTR  --- 40 tcp 1060 [0 0 0 0] ------- [0:0 1:0 32 2] [9 0] 0 0
r 55.200526817 _1_ AGT  --- 37 tcp 1060 [13a 1 2 800] ------- [0:0 1:0 31 1] [8 0] 2 0
s 55.200526817 _1_ AGT  --- 41 ack 40 [0 0 0 0] ------- [1:0 0:0 32 0] [8 0] 0 0
r 55.200526817 _1_ RTR  --- 41 ack 40 [0 0 0 0] ------- [1:0 0:0 32 0] [8 0] 0 0
s 55.200526817 _1_ RTR  --- 41 ack 60 [0 0 0 0] ------- [1:0 0:0 32 2] [8 0] 0 0
r 55.202752278 _2_ RTR  --- 39 ack 60 [13a 2 1 800] ------- [1:0 0:0 32 2] [7 0] 1 0
f 55.202752278 _2_ RTR  --- 39 ack 60 [13a 2 1 800] ------- [1:0 0:0 31 0] [7 0] 1 0
r 55.212888144 _2_ RTR  --- 40 tcp 1060 [13a 2 0 800] ------- [0:0 1:0 32 2] [9 0] 1 0
f 55.212888144 _2_ RTR  --- 40 tcp 1060 [13a 2 0 800] ------- [0:0 1:0 31 1] [9 0] 1 0
r 55.215053619 _0_ AGT  --- 39 ack 60 [13a 0 2 800] ------- [1:0 0:0 31 0] [7 0] 2 0
s 55.215053619 _0_ AGT  --- 42 tcp 1040 [0 0 0 0] ------- [0:0 1:0 32 0] [10 0] 0 0
r 55.215053619 _0_ RTR  --- 42 tcp 1040 [0 0 0 0] ------- [0:0 1:0 32 0] [10 0] 0 0
s 55.215053619 _0_ RTR  --- 42 tcp 1060 [0 0 0 0] ------- [0:0 1:0 32 2] [10 0] 0 0
s 55.215053619 _0_ AGT  --- 43 tcp 1040 [0 0 0 0] ------- [0:0 1:0 32 0] [11 0] 0 0
r 55.215053619 _0_ RTR  --- 43 tcp 1040 [0 0 0 0] ------- [0:0 1:0 32 0] [11 0] 0 0
s 55.215053619 _0_ RTR  --- 43 tcp 1060 [0 0 0 0] ------- [0:0 1:0 32 2] [11 0] 0 0
r 55.225459093 _2_ RTR  --- 42 tcp 1060 [13a 2 0 800] ------- [0:0 1:0 32 2] [10 0] 1 0
f 55.225459093 _2_ RTR  --- 42 tcp 1060 [13a 2 0 800] ------- [0:0 1:0 31 1] [10 0] 1 0
r 55.235624553 _1_ AGT  --- 40 tcp 1060 [13a 1 2 800] ------- [0:0 1:0 31 1] [9 0] 2 0
s 55.235624553 _1_ AGT  --- 44 ack 40 [0 0 0 0] ------- [1:0 0:0 32 0] [9 0] 0 0
r 55.235624553 _1_ RTR  --- 44 ack 40 [0 0 0 0] ------- [1:0 0:0 32 0] [9 0] 0 0
s 55.235624553 _1_ RTR  --- 44 ack 60 [0 0 0 0] ------- [1:0 0:0 32 2] [9 0] 0 0
r 55.237750013 _2_ RTR  --- 41 ack 60 [13a 2 1 800] ------- [1:0 0:0 32 2] [8 0] 1 0
f 55.237750013 _2_ RTR  --- 41 ack 60 [13a 2 1 800] ------- [1:0 0:0 31 0] [8 0] 1 0
r 55.247845877 _2_ RTR  --- 43 tcp 1060 [13a 2 0 800] ------- [0:0 1:0 32 2] [11 0] 1 0
f 55.247845877 _2_ RTR  --- 43 tcp 1060 [13a 2 0 800] ------- [0:0 1:0 31 1] [11 0] 1 0
r 55.249921721 _2_ RTR  --- 44 ack 60 [13a 2 1 800] ------- [1:0 0:0 32 2] [9 0] 1 0
f 55.249921721 _2_ RTR  --- 44 ack 60 [13a 2 1 800] ------- [1:0 0:0 31 0] [9 0] 1 0
r 55.260127179 _1_ AGT  --- 42 tcp 1060 [13a 1 2 800] ------- [0:0 1:0 31 1] [10 0] 2 0
s 55.260127179 _1_ AGT  --- 45 ack 40 [0 0 0 0] ------- [1:0 0:0 32 0] [10 0] 0 0
r 55.260127179 _1_ RTR  --- 45 ack 40 [0 0 0 0] ------- [1:0 0:0 32 0] [10 0] 0 0
s 55.260127179 _1_ RTR  --- 45 ack 60 [0 0 0 0] ------- [1:0 0:0 32 2] [10 0] 0 0
r 55.262213139 _0_ AGT  --- 41 ack 60 [13a 0 2 800] ------- [1:0 0:0 31 0] [8 0] 2 0
s 55.262213139 _0_ AGT  --- 46 tcp 1040 [0 0 0 0] ------- [0:0 1:0 32 0] [12 0] 0 0
r 55.262213139 _0_ RTR  --- 46 tcp 1040 [0 0 0 0] ------- [0:0 1:0 32 0] [12 0] 0 0
s 55.262213139 _0_ RTR  --- 46 tcp 1060 [0 0 0 0] ------- [0:0 1:0 32 2] [12 0] 0 0
r 55.272199088 _1_ AGT  --- 43 tcp 1060 [13a 1 2 800] ------- [0:0 1:0 31 1] [11 0] 2 0
s 55.272199088 _1_ AGT  --- 47 ack 40 [0 0 0 0] ------- [1:0 0:0 32 0] [11 0] 0 0
r 55.272199088 _1_ RTR  --- 47 ack 40 [0 0 0 0] ------- [1:0 0:0 32 0] [11 0] 0 0
s 55.272199088 _1_ RTR  --- 47 ack 60 [0 0 0 0] ------- [1:0 0:0 32 2] [11 0] 0 0
r 55.274404546 _2_ RTR  --- 45 ack 60 [13a 2 1 800] ------- [1:0 0:0 32 2] [10 0] 1 0
f 55.274404546 _2_ RTR  --- 45 ack 60 [13a 2 1 800] ------- [1:0 0:0 31 0] [10 0] 1 0
r 55.276570019 _0_ AGT  --- 44 ack 60 [13a 0 2 800] ------- [1:0 0:0 31 0] [9 0] 2 0
s 55.276570019 _0_ AGT  --- 48 tcp 1040 [0 0 0 0] ------- [0:0 1:0 32 0] [13 0] 0 0
r 55.276570019 _0_ RTR  --- 48 tcp 1040 [0 0 0 0] ------- [0:0 1:0 32 0] [13 0] 0 0
s 55.276570019 _0_ RTR  --- 48 tcp 1060 [0 0 0 0] ------- [0:0 1:0 32 2] [13 0] 0 0
r 55.286615492 _2_ RTR  --- 46 tcp 1060 [13a 2 0 800] ------- [0:0 1:0 32 2] [12 0] 1 0
f 55.286615492 _2_ RTR  --- 46 tcp 1060 [13a 2 0 800] ------- [0:0 1:0 31 1] [12 0] 1 0
r 55.296601456 _2_ RTR  --- 48 tcp 1060 [13a 2 0 800] ------- [0:0 1:0 32 2] [13 0] 1 0
f 55.296601456 _2_ RTR  --- 48 tcp 1060 [13a 2 0 800] ------- [0:0 1:0 31 1] [13 0] 1 0
r 55.298786929 _0_ AGT  --- 45 ack 60 [13a 0 2 800] ------- [1:0 0:0 31 0] [10 0] 2 0
s 55.298786929 _0_ AGT  --- 49 tcp 1040 [0 0 0 0] ------- [0:0 1:0 32 0] [14 0] 0 0
r 55.298786929 _0_ RTR  --- 49 tcp 1040 [0 0 0 0] ------- [0:0 1:0 32 0] [14 0] 0 0
s 55.298786929 _0_ RTR  --- 49 tcp 1060 [0 0 0 0] ------- [0:0 1:0 32 2] [14 0] 0 0
r 55.308932876 _1_ AGT  --- 46 tcp 1060 [13a 1 2 800] ------- [0:0 1:0 31 1] [12 0] 2 0
s 55.308932876 _1_ AGT  --- 50 ack 40 [0 0 0 0] ------- [1:0 0:0 32 0] [12 0] 0 0
r 55.308932876 _1_ RTR  --- 50 ack 40 [0 0 0 0] ------- [1:0 0:0 32 0] [12 0] 0 0
s 55.308932876 _1_ RTR  --- 50 ack 60 [0 0 0 0] ------- [1:0 0:0 32 2] [12 0] 0 0
r 55.311118332 _2_ RTR  --- 47 ack 60 [13a 2 1 800] ------- [1:0 0:0 32 2] [11 0] 1 0
f 55.311118332 _2_ RTR  --- 47 ack 60 [13a 2 1 800] ------- [1:0 0:0 31 0] [11 0] 1 0
r 55.321354194 _2_ RTR  --- 49 tcp 1060 [13a 2 0 800] ------- [0:0 1:0 32 2] [14 0] 1 0
f 55.321354194 _2_ RTR  --- 49 tcp 1060 [13a 2 0 800] ------- [0:0 1:0 31 1] [14 0] 1 0
r 55.331419649 _1_ AGT  --- 48 tcp 1060 [13a 1 2 800] ------- [0:0 1:0 31 1] [13 0] 2 0
s 55.331419649 _1_ AGT  --- 51 ack 40 [0 0 0 0] ------- [1:0 0:0 32 0] [13 0] 0 0
r 55.331419649 _1_ RTR  --- 51 ack 40 [0 0 0 0] ------- [1:0 0:0 32 0] [13 0] 0 0
s 55.331419649 _1_ RTR  --- 51 ack 60 [0 0 0 0] ------- [1:0 0:0 32 2] [13 0] 0 0
r 55.333745104 _2_ RTR  --- 50 ack 60 [13a 2 1 800] ------- [1:0 0:0 32 2] [12 0] 1 0
f 55.333745104 _2_ RTR  --- 50 ack 60 [13a 2 1 800] ------- [1:0 0:0 31 0] [12 0] 1 0
r 55.335950576 _0_ AGT  --- 47 ack 60 [13a 0 2 800] ------- [1:0 0:0 31 0] [11 0] 2 0
s 55.335950576 _0_ AGT  --- 52 tcp 1040 [0 0 0 0] ------- [0:0 1:0 32 0] [15 0] 0 0
r 55.335950576 _0_ RTR  --- 52 tcp 1040 [0 0 0 0] ------- [0:0 1:0 32 0] [15 0] 0 0
s 55.335950576 _0_ RTR  --- 52 tcp 1060 [0 0 0 0] ------- [0:0 1:0 32 2] [15 0] 0 0
r 55.345976047 _2_ RTR  --- 52 tcp 1060 [13a 2 0 800] ------- [0:0 1:0 32 2] [15 0] 1 0
f 55.345976047 _2_ RTR  --- 52 tcp 1060 [13a 2 0 800] ------- [0:0 1:0 31 1] [15 0] 1 0
r 55.348351885 _2_ RTR  --- 51 ack 60 [13a 2 1 800] ------- [1:0 0:0 32 2] [13 0] 1 0
f 55.348351885 _2_ RTR  --- 51 ack 60 [13a 2 1 800] ------- [1:0 0:0 31 0] [13 0] 1 0
r 55.358417339 _1_ AGT  --- 49 tcp 1060 [13a 1 2 800] ------- [0:0 1:0 31 1] [14 0] 2 0
s 55.358417339 _1_ AGT  --- 53 ack 40 [0 0 0 0] ------- [1:0 0:0 32 0] [14 0] 0 0
r 55.358417339 _1_ RTR  --- 53 ack 40 [0 0 0 0] ------- [1:0 0:0 32 0] [14 0] 0 0
s 55.358417339 _1_ RTR  --- 53 ack 60 [0 0 0 0] ------- [1:0 0:0 32 2] [14 0] 0 0
r 55.360482793 _2_ RTR  --- 53 ack 60 [13a 2 1 800] ------- [1:0 0:0 32 2] [14 0] 1 0
f 55.360482793 _2_ RTR  --- 53 ack 60 [13a 2 1 800] ------- [1:0 0:0 31 0] [14 0] 1 0
r 55.362968264 _0_ AGT  --- 50 ack 60 [13a 0 2 800] ------- [1:0 0:0 31 0] [12 0] 2 0
s 55.362968264 _0_ AGT  --- 54 tcp 1040 [0 0 0 0] ------- [0:0 1:0 32 0] [16 0] 0 0
r 55.362968264 _0_ RTR  --- 54 tcp 1040 [0 0 0 0] ------- [0:0 1:0 32 0] [16 0] 0 0
s 55.362968264 _0_ RTR  --- 54 tcp 1060 [0 0 0 0] ------- [0:0 1:0 32 2] [16 0] 0 0
s 55.362968264 _0_ AGT  --- 55 tcp 1040 [0 0 0 0] ------- [0:0 1:0 32 0] [17 0] 0 0
r 55.362968264 _0_ RTR  --- 55 tcp 1040 [0 0 0 0] ------- [0:0 1:0 32 0] [17 0] 0 0
s 55.362968264 _0_ RTR  --- 55 tcp 1060 [0 0 0 0] ------- [0:0 1:0 32 2] [17 0] 0 0
r 55.373274207 _1_ AGT  --- 52 tcp 1060 [13a 1 2 800] ------- [0:0 1:0 31 1] [15 0] 2 0
s 55.373274207 _1_ AGT  --- 56 ack 40 [0 0 0 0] ------- [1:0 0:0 32 0] [15 0] 0 0
r 55.373274207 _1_ RTR  --- 56 ack 40 [0 0 0 0] ------- [1:0 0:0 32 0] [15 0] 0 0
s 55.373274207 _1_ RTR  --- 56 ack 60 [0 0 0 0] ------- [1:0 0:0 32 2] [15 0] 0 0
r 55.375300162 _0_ AGT  --- 51 ack 60 [13a 0 2 800] ------- [1:0 0:0 31 0] [13 0] 2 0
s 55.375300162 _0_ AGT  --- 57 tcp 1040 [0 0 0 0] ------- [0:0 1:0 32 0] [18 0] 0 0
r 55.375300162 _0_ RTR  --- 57 tcp 1040 [0 0 0 0] ------- [0:0 1:0 32 0] [18 0] 0 0
s 55.375300162 _0_ RTR  --- 57 tcp 1060 [0 0 0 0] ------- [0:0 1:0 32 2] [18 0] 0 0
r 55.385305633 _2_ RTR  --- 54 tcp 1060 [13a 2 0 800] ------- [0:0 1:0 32 2] [16 0] 1 0
f 55.385305633 _2_ RTR  --- 54 tcp 1060 [13a 2 0 800] ------- [0:0 1:0 31 1] [16 0] 1 0
r 55.387781468 _2_ RTR  --- 56 ack 60 [13a 2 1 800] ------- [1:0 0:0 32 2] [15 0] 1 0
f 55.387781468 _2_ RTR  --- 56 ack 60 [13a 2 1 800] ------- [1:0 0:0 31 0] [15 0] 1 0
r 55.389806938 _0_ AGT  --- 53 ack 60 [13a 0 2 800] ------- [1:0 0:0 31 0] [14 0] 2 0
s 55.389806938 _0_ AGT  --- 58 tcp 1040 [0 0 0 0] ------- [0:0 1:0 32 0] [19 0] 0 0
r 55.389806938 _0_ RTR  --- 58 tcp 1040 [0 0 0 0] ------- [0:0 1:0 32 0] [19 0] 0 0
s 55.389806938 _0_ RTR  --- 58 tcp 1060 [0 0 0 0] ------- [0:0 1:0 32 2] [19 0] 0 0
r 55.399812408 _2_ RTR  --- 55 tcp 1060 [13a 2 0 800] ------- [0:0 1:0 32 2] [17 0] 1 0
f 55.399812408 _2_ RTR  --- 55 tcp 1060 [13a 2 0 800] ------- [0:0 1:0 31 1] [17 0] 1 0
r 55.409798368 _2_ RTR  --- 57 tcp 1060 [13a 2 0 800] ------- [0:0 1:0 32 2] [18 0] 1 0
f 55.409798368 _2_ RTR  --- 57 tcp 1060 [13a 2 0 800] ------- [0:0 1:0 31 1] [18 0] 1 0
r 55.420344328 _2_ RTR  --- 58 tcp 1060 [13a 2 0 800] ------- [0:0 1:0 32 2] [19 0] 1 0
f 55.420344328 _2_ RTR  --- 58 tcp 1060 [13a 2 0 800] ------- [0:0 1:0 31 1] [19 0] 1 0
r 55.430369778 _1_ AGT  --- 54 tcp 1060 [13a 1 2 800] ------- [0:0 1:0 31 1] [16 0] 2 0
s 55.430369778 _1_ AGT  --- 59 ack 40 [0 0 0 0] ------- [1:0 0:0 32 0] [16 0] 0 0
r 55.430369778 _1_ RTR  --- 59 ack 40 [0 0 0 0] ------- [1:0 0:0 32 0] [16 0] 0 0
s 55.430369778 _1_ RTR  --- 59 ack 60 [0 0 0 0] ------- [1:0 0:0 32 2] [16 0] 0 0
r 55.432415731 _0_ AGT  --- 56 ack 60 [13a 0 2 800] ------- [1:0 0:0 31 0] [15 0] 2 0
s 55.432415731 _0_ AGT  --- 60 tcp 1040 [0 0 0 0] ------- [0:0 1:0 32 0] [20 0] 0 0
r 55.432415731 _0_ RTR  --- 60 tcp 1040 [0 0 0 0] ------- [0:0 1:0 32 0] [20 0] 0 0
s 55.432415731 _0_ RTR  --- 60 tcp 1060 [0 0 0 0] ------- [0:0 1:0 32 2] [20 0] 0 0
r 55.442701200 _2_ RTR  --- 60 tcp 1060 [13a 2 0 800] ------- [0:0 1:0 32 2] [20 0] 1 0
f 55.442701200 _2_ RTR  --- 60 tcp 1060 [13a 2 0 800] ------- [0:0 1:0 31 1] [20 0] 1 0
r 55.452706649 _1_ AGT  --- 55 tcp 1060 [13a 1 2 800] ------- [0:0 1:0 31 1] [17 0] 2 0
s 55.452706649 _1_ AGT  --- 61 ack 40 [0 0 0 0] ------- [1:0 0:0 32 0] [17 0] 0 0
r 55.452706649 _1_ RTR  --- 61 ack 40 [0 0 0 0] ------- [1:0 0:0 32 0] [17 0] 0 0
s 55.452706649 _1_ RTR  --- 61 ack 60 [0 0 0 0] ------- [1:0 0:0 32 2] [17 0] 0 0
r 55.462812581 _1_ AGT  --- 57 tcp 1060 [13a 1 2 800] ------- [0:0 1:0 31 1] [18 0] 2 0
s 55.462812581 _1_ AGT  --- 62 ack 40 [0 0 0 0] ------- [1:0 0:0 32 0] [18 0] 0 0
r 55.462812581 _1_ RTR  --- 62 ack 40 [0 0 0 0] ------- [1:0 0:0 32 0] [18 0] 0 0
s 55.462812581 _1_ RTR  --- 62 ack 60 [0 0 0 0] ------- [1:0 0:0 32 2] [18 0] 0 0
r 55.464998030 _2_ RTR  --- 59 ack 60 [13a 2 1 800] ------- [1:0 0:0 32 2] [16 0] 1 0
f 55.464998030 _2_ RTR  --- 59 ack 60 [13a 2 1 800] ------- [1:0 0:0 31 0] [16 0] 1 0
r 55.467003961 _2_ RTR  --- 61 ack 60 [13a 2 1 800] ------- [1:0 0:0 32 2] [17 0] 1 0
f 55.467003961 _2_ RTR  --- 61 ack 60 [13a 2 1 800] ------- [1:0 0:0 31 0] [17 0] 1 0
r 55.468989892 _2_ RTR  --- 62 ack 60 [13a 2 1 800] ------- [1:0 0:0 32 2] [18 0] 1 0
f 55.468989892 _2_ RTR  --- 62 ack 60 [13a 2 1 800] ------- [1:0 0:0 31 0] [18 0] 1 0
r 55.479235340 _1_ AGT  --- 58 tcp 1060 [13a 1 2 800] ------- [0:0 1:0 31 1] [19 0] 2 0
s 55.479235340 _1_ AGT  --- 63 ack 40 [0 0 0 0] ------- [1:0 0:0 32 0] [19 0] 0 0
r 55.479235340 _1_ RTR  --- 63 ack 40 [0 0 0 0] ------- [1:0 0:0 32 0] [19 0] 0 0
s 55.479235340 _1_ RTR  --- 63 ack 60 [0 0 0 0] ------- [1:0 0:0 32 2] [19 0] 0 0
r 55.489681270 _1_ AGT  --- 60 tcp 1060 [13a 1 2 800] ------- [0:0 1:0 31 1] [20 0] 2 0
s 55.489681270 _1_ AGT  --- 64 ack 40 [0 0 0 0] ------- [1:0 0:0 32 0] [20 0] 0 0
r 55.489681270 _1_ RTR  --- 64 ack 40 [0 0 0 0] ------- [1:0 0:0 32 0] [20 0] 0 0
s 55.489681270 _1_ RTR  --- 64 ack 60 [0 0 0 0] ------- [1:0 0:0 32 2] [20 0] 0 0
r 55.491766718 _2_ RTR  --- 63 ack 60 [13a 2 1 800] ------- [1:0 0:0 32 2] [19 0] 1 0
f 55.491766718 _2_ RTR  --- 63 ack 60 [13a 2 1 800] ------- [1:0 0:0 31 0] [19 0] 1 0
r 55.493912647 _2_ RTR  --- 64 ack 60 [13a 2 1 800] ------- [1:0 0:0 32 2] [20 0] 1 0
f 55.493912647 _2_ RTR  --- 64 ack 60 [13a 2 1 800] ------- [1:0 0:0 31 0] [20 0] 1 0
r 55.495998115 _0_ AGT  --- 59 ack 60 [13a 0 2 800] ------- [1:0 0:0 31 0] [16 0] 2 0
s 55.495998115 _0_ AGT  --- 65 tcp 1040 [0 0 0 0] ------- [0:0 1:0 32 0] [21 0] 0 0
r 55.495998115 _0_ RTR  --- 65 tcp 1040 [0 0 0 0] ------- [0:0 1:0 32 0] [21 0] 0 0
s 55.495998115 _0_ RTR  --- 65 tcp 1060 [0 0 0 0] ------- [0:0 1:0 32 2] [21 0] 0 0
r 55.506083582 _2_ RTR  --- 65 tcp 1060 [13a 2 0 800] ------- [0:0 1:0 32 2] [21 0] 1 0
f 55.506083582 _2_ RTR  --- 65 tcp 1060 [13a 2 0 800] ------- [0:0 1:0 31 1] [21 0] 1 0
r 55.508209049 _0_ AGT  --- 61 ack 60 [13a 0 2 800] ------- [1:0 0:0 31 0] [17 0] 2 0
s 55.508209049 _0_ AGT  --- 66 tcp 1040 [0 0 0 0] ------- [0:0 1:0 32 0] [22 0] 0 0
r 55.508209049 _0_ RTR  --- 66 tcp 1040 [0 0 0 0] ------- [0:0 1:0 32 0] [22 0] 0 0
s 55.508209049 _0_ RTR  --- 66 tcp 1060 [0 0 0 0] ------- [0:0 1:0 32 2] [22 0] 0 0
s 55.508209049 _0_ AGT  --- 67 tcp 1040 [0 0 0 0] ------- [0:0 1:0 32 0] [23 0] 0 0
r 55.508209049 _0_ RTR  --- 67 tcp 1040 [0 0 0 0] ------- [0:0 1:0 32 0] [23 0] 0 0
s 55.508209049 _0_ RTR  --- 67 tcp 1060 [0 0 0 0] ------- [0:0 1:0 32 2] [23 0] 0 0
r 55.510235005 _0_ AGT  --- 62 ack 60 [13a 0 2 800] ------- [1:0 0:0 31 0] [18 0] 2 0
s 55.510235005 _0_ AGT  --- 68 tcp 1040 [0 0 0 0] ------- [0:0 1:0 32 0] [24 0] 0 0
r 55.510235005 _0_ RTR  --- 68 tcp 1040 [0 0 0 0] ------- [0:0 1:0 32 0] [24 0] 0 0
s 55.510235005 _0_ RTR  --- 68 tcp 1060 [0 0 0 0] ------- [0:0 1:0 32 2] [24 0] 0 0
r 55.512320961 _0_ AGT  --- 63 ack 60 [13a 0 2 800] ------- [1:0 0:0 31 0] [19 0] 2 0
s 55.512320961 _0_ AGT  --- 69 tcp 1040 [0 0 0 0] ------- [0:0 1:0 32 0] [25 0] 0 0
r 55.512320961 _0_ RTR  --- 69 tcp 1040 [0 0 0 0] ------- [0:0 1:0 32 0] [25 0] 0 0
s 55.512320961 _0_ RTR  --- 69 tcp 1060 [0 0 0 0] ------- [0:0 1:0 32 2] [25 0] 0 0
r 55.522566428 _2_ RTR  --- 66 tcp 1060 [13a 2 0 800] ------- [0:0 1:0 32 2] [22 0] 1 0
f 55.522566428 _2_ RTR  --- 66 tcp 1060 [13a 2 0 800] ------- [0:0 1:0 31 1] [22 0] 1 0
r 55.532612383 _2_ RTR  --- 67 tcp 1060 [13a 2 0 800] ------- [0:0 1:0 32 2] [23 0] 1 0
f 55.532612383 _2_ RTR  --- 67 tcp 1060 [13a 2 0 800] ------- [0:0 1:0 31 1] [23 0] 1 0
r 55.534757849 _0_ AGT  --- 64 ack 60 [13a 0 2 800] ------- [1:0 0:0 31 0] [20 0] 2 0
s 55.534757849 _0_ AGT  --- 70 tcp 1040 [0 0 0 0] ------- [0:0 1:0 32 0] [26 0] 0 0
r 55.534757849 _0_ RTR  --- 70 tcp 1040 [0 0 0 0] ------- [0:0 1:0 32 0] [26 0] 0 0
s 55.534757849 _0_ RTR  --- 70 tcp 1060 [0 0 0 0] ------- [0:0 1:0 32 2] [26 0] 0 0
r 55.545063783 _1_ AGT  --- 65 tcp 1060 [13a 1 2 800] ------- [0:0 1:0 31 1] [21 0] 2 0
s 55.545063783 _1_ AGT  --- 71 ack 40 [0 0 0 0] ------- [1:0 0:0 32 0] [21 0] 0 0
r 55.545063783 _1_ RTR  --- 71 ack 40 [0 0 0 0] ------- [1:0 0:0 32 0] [21 0] 0 0
s 55.545063783 _1_ RTR  --- 71 ack 60 [0 0 0 0] ------- [1:0 0:0 32 2] [21 0] 0 0
r 55.547149228 _2_ RTR  --- 71 ack 60 [13a 2 1 800] ------- [1:0 0:0 32 2] [21 0] 1 0
f 55.547149228 _2_ RTR  --- 71 ack 60 [13a 2 1 800] ------- [1:0 0:0 31 0] [21 0] 1 0
r 55.557245082 _2_ RTR  --- 68 tcp 1060 [13a 2 0 800] ------- [0:0 1:0 32 2] [24 0] 1 0
f 55.557245082 _2_ RTR  --- 68 tcp 1060 [13a 2 0 800] ------- [0:0 1:0 31 1] [24 0] 1 0
r 55.567330526 _1_ AGT  --- 66 tcp 1060 [13a 1 2 800] ------- [0:0 1:0 31 1] [22 0] 2 0
s 55.567330526 _1_ AGT  --- 72 ack 40 [0 0 0 0] ------- [1:0 0:0 32 0] [22 0] 0 0
r 55.567330526 _1_ RTR  --- 72 ack 40 [0 0 0 0] ------- [1:0 0:0 32 0] [22 0] 0 0
s 55.567330526 _1_ RTR  --- 72 ack 60 [0 0 0 0] ------- [1:0 0:0 32 2] [22 0] 0 0
r 55.569675969 _2_ RTR  --- 72 ack 60 [13a 2 1 800] ------- [1:0 0:0 32 2] [22 0] 1 0
f 55.569675969 _2_ RTR  --- 72 ack 60 [13a 2 1 800] ------- [1:0 0:0 31 0] [22 0] 1 0
r 55.579681413 _1_ AGT  --- 67 tcp 1060 [13a 1 2 800] ------- [0:0 1:0 31 1] [23 0] 2 0
s 55.579681413 _1_ AGT  --- 73 ack 40 [0 0 0 0] ------- [1:0 0:0 32 0] [23 0] 0 0
r 55.579681413 _1_ RTR  --- 73 ack 40 [0 0 0 0] ------- [1:0 0:0 32 0] [23 0] 0 0
s 55.579681413 _1_ RTR  --- 73 ack 60 [0 0 0 0] ------- [1:0 0:0 32 2] [23 0] 0 0
r 55.581826856 _2_ RTR  --- 73 ack 60 [13a 2 1 800] ------- [1:0 0:0 32 2] [23 0] 1 0
f 55.581826856 _2_ RTR  --- 73 ack 60 [13a 2 1 800] ------- [1:0 0:0 31 0] [23 0] 1 0
r 55.584012321 _0_ AGT  --- 71 ack 60 [13a 0 2 800] ------- [1:0 0:0 31 0] [21 0] 2 0
s 55.584012321 _0_ AGT  --- 74 tcp 1040 [0 0 0 0] ------- [0:0 1:0 32 0] [27 0] 0 0
r 55.584012321 _0_ RTR  --- 74 tcp 1040 [0 0 0 0] ------- [0:0 1:0 32 0] [27 0] 0 0
s 55.584012321 _0_ RTR  --- 74 tcp 1060 [0 0 0 0] ------- [0:0 1:0 32 2] [27 0] 0 0
r 55.594037786 _2_ RTR  --- 69 tcp 1060 [13a 2 0 800] ------- [0:0 1:0 32 2] [25 0] 1 0
f 55.594037786 _2_ RTR  --- 69 tcp 1060 [13a 2 0 800] ------- [0:0 1:0 31 1] [25 0] 1 0
r 55.604103228 _1_ AGT  --- 68 tcp 1060 [13a 1 2 800] ------- [0:0 1:0 31 1] [24 0] 2 0