Sconfig 0.00000 tap: on snoop: rts? on errs? on
Sconfig 0.00000 salvage: on !bd replies? on
Sconfig 0.00000 grat error: on grat reply: on
Sconfig 0.00000 $reply for props: on ring 0 search: on
Sconfig 0.00000 using MOBICACHE
s 0.000000000 _0_ AGT  --- 0 cbr 512 [0 0 0 0] ------- [0:0 1:0 32 0] [0] 0 0
r 0.000000000 _0_ RTR  --- 0 cbr 512 [0 0 0 0] ------- [0:0 1:0 32 0] [0] 0 0
s 0.000142047 _0_ RTR  --- 1 DSR 32 [0 0 0 0] ------- [0:255 1:255 32 0] 1 [1 1] [0 1 0 0->0] [0 0 0 0->0]
s 0.000470498 _0_ AGT  --- 2 cbr 512 [0 0 0 0] ------- [0:0 1:0 32 0] [1] 0 0
r 0.000470498 _0_ RTR  --- 2 cbr 512 [0 0 0 0] ------- [0:0 1:0 32 0] [1] 0 0
s 0.000537047 _0_ MAC  --- 1 DSR 90 [0 ffffffff 0 800] ------- [0:255 1:255 32 0] 1 [1 1] [0 1 0 0->0] [0 0 0 0->0]
s 0.001509822 _0_ AGT  --- 4 cbr 512 [0 0 0 0] ------- [0:0 1:0 32 0] [2] 0 0
r 0.001509822 _0_ RTR  --- 4 cbr 512 [0 0 0 0] ------- [0:0 1:0 32 0] [2] 0 0
s 0.002563003 _0_ AGT  --- 6 cbr 512 [0 0 0 0] ------- [0:0 1:0 32 0] [3] 0 0
r 0.002563003 _0_ RTR  --- 6 cbr 512 [0 0 0 0] ------- [0:0 1:0 32 0] [3] 0 0
s 0.003150685 _0_ AGT  --- 8 cbr 512 [0 0 0 0] ------- [0:0 1:0 32 0] [4] 0 0
r 0.003150685 _0_ RTR  --- 8 cbr 512 [0 0 0 0] ------- [0:0 1:0 32 0] [4] 0 0
s 0.004061777 _0_ AGT  --- 10 cbr 512 [0 0 0 0] ------- [0:0 1:0 32 0] [5] 0 0
r 0.004061777 _0_ RTR  --- 10 cbr 512 [0 0 0 0] ------- [0:0 1:0 32 0] [5] 0 0
s 0.004709040 _0_ AGT  --- 12 cbr 512 [0 0 0 0] ------- [0:0 1:0 32 0] [6] 0 0
r 0.004709040 _0_ RTR  --- 12 cbr 512 [0 0 0 0] ------- [0:0 1:0 32 0] [6] 0 0
s 0.005778099 _0_ AGT  --- 14 cbr 512 [0 0 0 0] ------- [0:0 1:0 32 0] [7] 0 0
r 0.005778099 _0_ RTR  --- 14 cbr 512 [0 0 0 0] ------- [0:0 1:0 32 0] [7] 0 0
s 0.006309415 _0_ AGT  --- 16 cbr 512 [0 0 0 0] ------- [0:0 1:0 32 0] [8] 0 0
r 0.006309415 _0_ RTR  --- 16 cbr 512 [0 0 0 0] ------- [0:0 1:0 32 0] [8] 0 0
s 0.006743651 _0_ AGT  --- 18 cbr 512 [0 0 0 0] ------- [0:0 1:0 32 0] [9] 0 0
r 0.006743651 _0_ RTR  --- 18 cbr 512 [0 0 0 0] ------- [0:0 1:0 32 0] [9] 0 0
s 0.007655705 _0_ AGT  --- 20 cbr 512 [0 0 0 0] ------- [0:0 1:0 32 0] [10] 0 0
r 0.007655705 _0_ RTR  --- 20 cbr 512 [0 0 0 0] ------- [0:0 1:0 32 0] [10] 0 0
s 0.008146752 _0_ AGT  --- 22 cbr 512 [0 0 0 0] ------- [0:0 1:0 32 0] [11] 0 0
r 0.008146752 _0_ RTR  --- 22 cbr 512 [0 0 0 0] ------- [0:0 1:0 32 0] [11] 0 0
s 0.009234534 _0_ AGT  --- 24 cbr 512 [0 0 0 0] ------- [0:0 1:0 32 0] [12] 0 0
r 0.009234534 _0_ RTR  --- 24 cbr 512 [0 0 0 0] ------- [0:0 1:0 32 0] [12] 0 0
s 0.009973459 _0_ AGT  --- 26 cbr 512 [0 0 0 0] ------- [0:0 1:0 32 0] [13] 0 0
r 0.009973459 _0_ RTR  --- 26 cbr 512 [0 0 0 0] ------- [0:0 1:0 32 0] [13] 0 0
s 0.010513303 _0_ AGT  --- 28 cbr 512 [0 0 0 0] ------- [0:0 1:0 32 0] [14] 0 0
r 0.010513303 _0_ RTR  --- 28 cbr 512 [0 0 0 0] ------- [0:0 1:0 32 0] [14] 0 0
s 0.010988614 _0_ AGT  --- 30 cbr 512 [0 0 0 0] ------- [0:0 1:0 32 0] [15] 0 0
r 0.010988614 _0_ RTR  --- 30 cbr 512 [0 0 0 0] ------- [0:0 1:0 32 0] [15] 0 0
s 0.012034237 _0_ AGT  --- 32 cbr 512 [0 0 0 0] ------- [0:0 1:0 32 0] [16] 0 0
r 0.012034237 _0_ RTR  --- 32 cbr 512 [0 0 0 0] ------- [0:0 1:0 32 0] [16] 0 0
s 0.012713230 _0_ AGT  --- 34 cbr 512 [0 0 0 0] ------- [0:0 1:0 32 0] [17] 0 0
r 0.012713230 _0_ RTR  --- 34 cbr 512 [0 0 0 0] ------- [0:0 1:0 32 0] [17] 0 0
s 0.013319700 _0_ AGT  --- 36 cbr 512 [0 0 0 0] ------- [0:0 1:0 32 0] [18] 0 0
r 0.013319700 _0_ RTR  --- 36 cbr 512 [0 0 0 0] ------- [0:0 1:0 32 0] [18] 0 0
s 0.014046649 _0_ AGT  --- 38 cbr 512 [0 0 0 0] ------- [0:0 1:0 32 0] [19] 0 0
r 0.014046649 _0_ RTR  --- 38 cbr 512 [0 0 0 0] ------- [0:0 1:0 32 0] [19] 0 0
s 0.014861568 _0_ AGT  --- 40 cbr 512 [0 0 0 0] ------- [0:0 1:0 32 0] [20] 0 0
r 0.014861568 _0_ RTR  --- 40 cbr 512 [0 0 0 0] ------- [0:0 1:0 32 0] [20] 0 0
s 0.015634461 _0_ AGT  --- 42 cbr 512 [0 0 0 0] ------- [0:0 1:0 32 0] [21] 0 0
r 0.015634461 _0_ RTR  --- 42 cbr 512 [0 0 0 0] ------- [0:0 1:0 32 0] [21] 0 0
s 0.016588306 _0_ AGT  --- 44 cbr 512 [0 0 0 0] ------- [0:0 1:0 32 0] [22] 0 0
r 0.016588306 _0_ RTR  --- 44 cbr 512 [0 0 0 0] ------- [0:0 1:0 32 0] [22] 0 0
s 0.017677960 _0_ AGT  --- 46 cbr 512 [0 0 0 0] ------- [0:0 1:0 32 0] [23] 0 0
r 0.017677960 _0_ RTR  --- 46 cbr 512 [0 0 0 0] ------- [0:0 1:0 32 0] [23] 0 0
s 0.018749820 _0_ AGT  --- 48 cbr 512 [0 0 0 0] ------- [0:0 1:0 32 0] [24] 0 0
r 0.018749820 _0_ RTR  --- 48 cbr 512 [0 0 0 0] ------- [0:0 1:0 32 0] [24] 0 0
s 0.019323548 _0_ AGT  --- 50 cbr 512 [0 0 0 0] ------- [0:0 1:0 32 0] [25] 0 0
r 0.019323548 _0_ RTR  --- 50 cbr 512 [0 0 0 0] ------- [0:0 1:0 32 0] [25] 0 0
s 0.019916528 _0_ AGT  --- 52 cbr 512 [0 0 0 0] ------- [0:0 1:0 32 0] [26] 0 0
r 0.019916528 _0_ RTR  --- 52 cbr 512 [0 0 0 0] ------- [0:0 1:0 32 0] [26] 0 0
s 0.020997414 _0_ AGT  --- 54 cbr 512 [0 0 0 0] ------- [0:0 1:0 32 0] [27] 0 0
r 0.020997414 _0_ RTR  --- 54 cbr 512 [0 0 0 0] ------- [0:0 1:0 32 0] [27] 0 0
s 0.021939293 _0_ AGT  --- 56 cbr 512 [0 0 0 0] ------- [0:0 1:0 32 0] [28] 0 0
r 0.021939293 _0_ RTR  --- 56 cbr 512 [0 0 0 0] ------- [0:0 1:0 32 0] [28] 0 0
s 0.022949078 _0_ AGT  --- 58 cbr 512 [0 0 0 0] ------- [0:0 1:0 32 0] [29] 0 0
r 0.022949078 _0_ RTR  --- 58 cbr 512 [0 0 0 0] ------- [0:0 1:0 32 0] [29] 0 0
s 0.024073035 _0_ AGT  --- 60 cbr 512 [0 0 0 0] ------- [0:0 1:0 32 0] [30] 0 0
r 0.024073035 _0_ RTR  --- 60 cbr 512 [0 0 0 0] ------- [0:0 1:0 32 0] [30] 0 0
s 0.024797450 _0_ AGT  --- 62 cbr 512 [0 0 0 0] ------- [0:0 1:0 32 0] [31] 0 0
r 0.024797450 _0_ RTR  --- 62 cbr 512 [0 0 0 0] ------- [0:0 1:0 32 0] [31] 0 0
s 0.025284809 _0_ AGT  --- 64 cbr 512 [0 0 0 0] ------- [0:0 1:0 32 0] [32] 0 0
r 0.025284809 _0_ RTR  --- 64 cbr 512 [0 0 0 0] ------- [0:0 1:0 32 0] [32] 0 0
s 0.026008175 _0_ AGT  --- 66 cbr 512 [0 0 0 0] ------- [0:0 1:0 32 0] [33] 0 0
r 0.026008175 _0_ RTR  --- 66 cbr 512 [0 0 0 0] ------- [0:0 1:0 32 0] [33] 0 0
s 0.026558067 _0_ AGT  --- 68 cbr 512 [0 0 0 0] ------- [0:0 1:0 32 0] [34] 0 0
r 0.026558067 _0_ RTR  --- 68 cbr 512 [0 0 0 0] ------- [0:0 1:0 32 0] [34] 0 0
s 0.027668022 _0_ AGT  --- 70 cbr 512 [0 0 0 0] ------- [0:0 1:0 32 0] [35] 0 0
r 0.027668022 _0_ RTR  --- 70 cbr 512 [0 0 0 0] ------- [0:0 1:0 32 0] [35] 0 0
s 0.028825034 _0_ AGT  --- 72 cbr 512 [0 0 0 0] ------- [0:0 1:0 32 0] [36] 0 0
r 0.028825034 _0_ RTR  --- 72 cbr 512 [0 0 0 0] ------- [0:0 1:0 32 0] [36] 0 0
s 0.029938112 _0_ AGT  --- 74 cbr 512 [0 0 0 0] ------- [0:0 1:0 32 0] [37] 0 0
r 0.029938112 _0_ RTR  --- 74 cbr 512 [0 0 0 0] ------- [0:0 1:0 32 0] [37] 0 0
s 0.030427737 _0_ AGT  --- 114 cbr 512 [0 0 0 0] ------- [0:0 1:0 32 0] [38] 0 0
r 0.030427737 _0_ RTR  --- 114 cbr 512 [0 0 0 0] ------- [0:0 1:0 32 0] [38] 0 0
s 0.030594214 _0_ RTR  --- 76 DSR 32 [0 0 0 0] ------- [0:255 1:255 32 0] 1 [1 2] [0 2 0 0->0] [0 0 0 0->0]
s 0.031169214 _0_ MAC  --- 76 DSR 90 [0 ffffffff 0 800] ------- [0:255 1:255 32 0] 1 [1 2] [0 2 0 0->0] [0 0 0 0->0]
s 0.031303759 _0_ AGT  --- 116 cbr 512 [0 0 0 0] ------- [0:0 1:0 32 0] [39] 0 0
r 0.031303759 _0_ RTR  --- 116 cbr 512 [0 0 0 0] ------- [0:0 1:0 32 0] [39] 0 0
s 0.031802242 _0_ AGT  --- 118 cbr 512 [0 0 0 0] ------- [0:0 1:0 32 0] [40] 0 0
r 0.031802242 _0_ RTR  --- 118 cbr 512 [0 0 0 0] ------- [0:0 1:0 32 0] [40] 0 0
s 0.032737141 _0_ AGT  --- 120 cbr 512 [0 0 0 0] ------- [0:0 1:0 32 0] [41] 0 0
r 0.032737141 _0_ RTR  --- 120 cbr 512 [0 0 0 0] ------- [0:0 1:0 32 0] [41] 0 0
s 0.033696079 _0_ AGT  --- 122 cbr 512 [0 0 0 0] ------- [0:0 1:0 32 0] [42] 0 0
r 0.033696079 _0_ RTR  --- 122 cbr 512 [0 0 0 0] ------- [0:0 1:0 32 0] [42] 0 0
s 0.034531937 _0_ AGT  --- 124 cbr 512 [0 0 0 0] ------- [0:0 1:0 32 0] [43] 0 0
r 0.034531937 _0_ RTR  --- 124 cbr 512 [0 0 0 0] ------- [0:0 1:0 32 0] [43] 0 0
s 0.035633262 _0_ AGT  --- 126 cbr 512 [0 0 0 0] ------- [0:0 1:0 32 0] [44] 0 0
r 0.035633262 _0_ RTR  --- 126 cbr 512 [0 0 0 0] ------- [0:0 1:0 32 0] [44] 0 0
s 0.036242721 _0_ AGT  --- 128 cbr 512 [0 0 0 0] ------- [0:0 1:0 32 0] [45] 0 0
r 0.036242721 _0_ RTR  --- 128 cbr 512 [0 0 0 0] ------- [0:0 1:0 32 0] [45] 0 0
s 0.037086593 _0_ AGT  --- 130 cbr 512 [0 0 0 0] ------- [0:0 1:0 32 0] [46] 0 0
r 0.037086593 _0_ RTR  --- 130 cbr 512 [0 0 0 0] ------- [0:0 1:0 32 0] [46] 0 0
s 0.037827142 _0_ AGT  --- 132 cbr 512 [0 0 0 0] ------- [0:0 1:0 32 0] [47] 0 0
r 0.037827142 _0_ RTR  --- 132 cbr 512 [0 0 0 0] ------- [0:0 1:0 32 0] [47] 0 0
s 0.038249188 _0_ AGT  --- 134 cbr 512 [0 0 0 0] ------- [0:0 1:0 32 0] [48] 0 0
r 0.038249188 _0_ RTR  --- 134 cbr 512 [0 0 0 0] ------- [0:0 1:0 32 0] [48] 0 0
s 0.038911042 _0_ AGT  --- 136 cbr 512 [0 0 0 0] ------- [0:0 1:0 32 0] [49] 0 0
r 0.038911042 _0_ RTR  --- 136 cbr 512 [0 0 0 0] ------- [0:0 1:0 32 0] [49] 0 0
s 0.039460013 _0_ AGT  --- 138 cbr 512 [0 0 0 0] ------- [0:0 1:0 32 0] [50] 0 0
r 0.039460013 _0_ RTR  --- 138 cbr 512 [0 0 0 0] ------- [0:0 1:0 32 0] [50] 0 0
s 0.040488003 _0_ AGT  --- 140 cbr 512 [0 0 0 0] ------- [0:0 1:0 32 0] [51] 0 0
r 0.040488003 _0_ RTR  --- 140 cbr 512 [0 0 0 0] ------- [0:0 1:0 32 0] [51] 0 0
s 0.041645456 _0_ AGT  --- 142 cbr 512 [0 0 0 0] ------- [0:0 1:0 32 0] [52] 0 0
r 0.041645456 _0_ RTR  --- 142 cbr 512 [0 0 0 0] ------- [0:0 1:0 32 0] [52] 0 0
s 0.042663613 _0_ AGT  --- 144 cbr 512 [0 0 0 0] ------- [0:0 1:0 32 0] [53] 0 0
r 0.042663613 _0_ RTR  --- 144 cbr 512 [0 0 0 0] ------- [0:0 1:0 32 0] [53] 0 0
s 0.043229000 _0_ AGT  --- 146 cbr 512 [0 0 0 0] ------- [0:0 1:0 32 0] [54] 0 0
r 0.043229000 _0_ RTR  --- 146 cbr 512 [0 0 0 0] ------- [0:0 1:0 32 0] [54] 0 0
s 0.044184950 _0_ AGT  --- 148 cbr 512 [0 0 0 0] ------- [0:0 1:0 32 0] [55] 0 0
r 0.044184950 _0_ RTR  --- 148 cbr 512 [0 0 0 0] ------- [0:0 1:0 32 0] [55] 0 0
s 0.044727932 _0_ AGT  --- 150 cbr 512 [0 0 0 0] ------- [0:0 1:0 32 0] [56] 0 0
r 0.044727932 _0_ RTR  --- 150 cbr 512 [0 0 0 0] ------- [0:0 1:0 32 0] [56] 0 0
s 0.045908737 _0_ AGT  --- 152 cbr 512 [0 0 0 0] ------- [0:0 1:0 32 0] [57] 0 0
r 0.045908737 _0_ RTR  --- 152 cbr 512 [0 0 0 0] ------- [0:0 1:0 32 0] [57] 0 0
s 0.046381823 _0_ AGT  --- 154 cbr 512 [0 0 0 0] ------- [0:0 1:0 32 0] [58] 0 0
r 0.046381823 _0_ RTR  --- 154 cbr 512 [0 0 0 0] ------- [0:0 1:0 32 0] [58] 0 0
s 0.047175200 _0_ AGT  --- 156 cbr 512 [0 0 0 0] ------- [0:0 1:0 32 0] [59] 0 0
r 0.047175200 _0_ RTR  --- 156 cbr 512 [0 0 0 0] ------- [0:0 1:0 32 0] [59] 0 0
s 0.048267285 _0_ AGT  --- 158 cbr 512 [0 0 0 0] ------- [0:0 1:0 32 0] [60] 0 0
r 0.048267285 _0_ RTR  --- 158 cbr 512 [0 0 0 0] ------- [0:0 1:0 32 0] [60] 0 0
s 0.049093603 _0_ AGT  --- 160 cbr 512 [0 0 0 0] ------- [0:0 1:0 32 0] [61] 0 0
r 0.049093603 _0_ RTR  --- 160 cbr 512 [0 0 0 0] ------- [0:0 1:0 32 0] [61] 0 0
s 0.050081676 _0_ AGT  --- 162 cbr 512 [0 0 0 0] ------- [0:0 1:0 32 0] [62] 0 0
r 0.050081676 _0_ RTR  --- 162 cbr 512 [0 0 0 0] ------- [0:0 1:0 32 0] [62] 0 0
s 0.050818652 _0_ AGT  --- 164 cbr 512 [0 0 0 0] ------- [0:0 1:0 32 0] [63] 0 0
r 0.050818652 _0_ RTR  --- 164 cbr 512 [0 0 0 0] ------- [0:0 1:0 32 0] [63] 0 0
s 0.051289212 _0_ AGT  --- 166 cbr 512 [0 0 0 0] ------- [0:0 1:0 32 0] [64] 0 0
r 0.051289212 _0_ RTR  --- 166 cbr 512 [0 0 0 0] ------- [0:0 1:0 32 0] [64] 0 0
Ssb 0.05129 _0_ dropped 0 -> 1
D 0.051289212 _0_ RTR TOUT 0 cbr 532 [0 0 0 0] ------- [0:0 1:0 32 0] [0] 0 0
s 0.052340733 _0_ AGT  --- 168 cbr 512 [0 0 0 0] ------- [0:0 1:0 32 0] [65] 0 0
r 0.052340733 _0_ RTR  --- 168 cbr 512 [0 0 0 0] ------- [0:0 1:0 32 0] [65] 0 0
Ssb 0.05234 _0_ dropped 0 -> 1
D 0.052340733 _0_ RTR TOUT 2 cbr 532 [0 0 0 0] ------- [0:0 1:0 32 0] [1] 0 0
s 0.053463011 _0_ AGT  --- 170 cbr 512 [0 0 0 0] ------- [0:0 1:0 32 0] [66] 0 0
r 0.053463011 _0_ RTR  --- 170 cbr 512 [0 0 0 0] ------- [0:0 1:0 32 0] [66] 0 0
Ssb 0.05346 _0_ dropped 0 -> 1
D 0.053463011 _0_ RTR TOUT 4 cbr 532 [0 0 0 0] ------- [0:0 1:0 32 0] [2] 0 0
s 0.054445444 _0_ AGT  --- 172 cbr 512 [0 0 0 0] ------- [0:0 1:0 32 0] [67] 0 0
r 0.054445444 _0_ RTR  --- 172 cbr 512 [0 0 0 0] ------- [0:0 1:0 32 0] [67] 0 0
Ssb 0.05445 _0_ dropped 0 -> 1
D 0.054445444 _0_ RTR TOUT 6 cbr 532 [0 0 0 0] ------- [0:0 1:0 32 0] [3] 0 0
s 0.055545161 _0_ AGT  --- 174 cbr 512 [0 0 0 0] ------- [0:0 1:0 32 0] [68] 0 0
r 0.055545161 _0_ RTR  --- 174 cbr 512 [0 0 0 0] ------- [0:0 1:0 32 0] [68] 0 0
Ssb 0.05555 _0_ dropped 0 -> 1
D 0.055545161 _0_ RTR TOUT 8 cbr 532 [0 0 0 0] ------- [0:0 1:0 32 0] [4] 0 0
s 0.056414051 _0_ AGT  --- 176 cbr 512 [0 0 0 0] ------- [0:0 1:0 32 0] [69] 0 0
r 0.056414051 _0_ RTR  --- 176 cbr 512 [0 0 0 0] ------- [0:0 1:0 32 0] [69] 0 0
Ssb 0.05641 _0_ dropped 0 -> 1
D 0.056414051 _0_ RTR TOUT 10 cbr 532 [0 0 0 0] ------- [0:0 1:0 32 0] [5] 0 0
s 0.057402724 _0_ AGT  --- 178 cbr 512 [0 0 0 0] ------- [0:0 1:0 32 0] [70] 0 0
r 0.057402724 _0_ RTR  --- 178 cbr 512 [0 0 0 0] ------- [0:0 1:0 32 0] [70] 0 0
Ssb 0.05740 _0_ dropped 0 -> 1
D 0.057402724 _0_ RTR TOUT 12 cbr 532 [0 0 0 0] ------- [0:0 1:0 32 0] [6] 0 0
s 0.058444333 _0_ AGT  --- 180 cbr 512 [0 0 0 0] ------- [0:0 1:0 32 0] [71] 0 0
r 0.058444333 _0_ RTR  --- 180 cbr 512 [0 0 0 0] ------- [0:0 1:0 32 0] [71] 0 0
Ssb 0.05844 _0_ dropped 0 -> 1
D 0.058444333 _0_ RTR TOUT 14 cbr 532 [0 0 0 0] ------- [0:0 1:0 32 0] [7] 0 0
s 0.059129180 _0_ AGT  --- 182 cbr 512 [0 0 0 0] ------- [0:0 1:0 32 0] [72] 0 0
r 0.059129180 _0_ RTR  --- 182 cbr 512 [0 0 0 0] ------- [0:0 1:0 32 0] [72] 0 0
Ssb 0.05913 _0_ dropped 0 -> 1
D 0.059129180 _0_ RTR TOUT 16 cbr 532 [0 0 0 0] ------- [0:0 1:0 32 0] [8] 0 0
s 0.059975907 _0_ AGT  --- 184 cbr 512 [0 0 0 0] ------- [0:0 1:0 32 0] [73] 0 0
r 0.059975907 _0_ RTR  --- 184 cbr 512 [0 0 0 0] ------- [0:0 1:0 32 0] [73] 0 0
Ssb 0.05998 _0_ dropped 0 -> 1
D 0.059975907 _0_ RTR TOUT 18 cbr 532 [0 0 0 0] ------- [0:0 1:0 32 0] [9] 0 0
s 0.061028373 _0_ AGT  --- 250 cbr 512 [0 0 0 0] ------- [0:0 1:0 32 0] [74] 0 0
r 0.061028373 _0_ RTR  --- 250 cbr 512 [0 0 0 0] ------- [0:0 1:0 32 0] [74] 0 0
Ssb 0.06103 _0_ dropped 0 -> 1
D 0.061028373 _0_ RTR TOUT 20 cbr 532 [0 0 0 0] ------- [0:0 1:0 32 0] [10] 0 0
s 0.061959193 _0_ AGT  --- 252 cbr 512 [0 0 0 0] ------- [0:0 1:0 32 0] [75] 0 0
r 0.061959193 _0_ RTR  --- 252 cbr 512 [0 0 0 0] ------- [0:0 1:0 32 0] [75] 0 0
Ssb 0.06196 _0_ dropped 0 -> 1
D 0.061959193 _0_ RTR TOUT 22 cbr 532 [0 0 0 0] ------- [0:0 1:0 32 0] [11] 0 0
s 0.062479184 _0_ AGT  --- 254 cbr 512 [0 0 0 0] ------- [0:0 1:0 32 0] [76] 0 0
r 0.062479184 _0_ RTR  --- 254 cbr 512 [0 0 0 0] ------- [0:0 1:0 32 0] [76] 0 0
Ssb 0.06248 _0_ dropped 0 -> 1
D 0.062479184 _0_ RTR TOUT 24 cbr 532 [0 0 0 0] ------- [0:0 1:0 32 0] [12] 0 0
s 0.063204286 _0_ AGT  --- 256 cbr 512 [0 0 0 0] ------- [0:0 1:0 32 0] [77] 0 0
r 0.063204286 _0_ RTR  --- 256 cbr 512 [0 0 0 0] ------- [0:0 1:0 32 0] [77] 0 0
Ssb 0.06320 _0_ dropped 0 -> 1
D 0.063204286 _0_ RTR TOUT 26 cbr 532 [0 0 0 0] ------- [0:0 1:0 32 0] [13] 0 0
s 0.064041185 _0_ AGT  --- 258 cbr 512 [0 0 0 0] ------- [0:0 1:0 32 0] [78] 0 0
r 0.064041185 _0_ RTR  --- 258 cbr 512 [0 0 0 0] ------- [0:0 1:0 32 0] [78] 0 0
Ssb 0.06404 _0_ dropped 0 -> 1
D 0.064041185 _0_ RTR TOUT 28 cbr 532 [0 0 0 0] ------- [0:0 1:0 32 0] [14] 0 0
s 0.064740068 _0_ AGT  --- 260 cbr 512 [0 0 0 0] ------- [0:0 1:0 32 0] [79] 0 0
r 0.064740068 _0_ RTR  --- 260 cbr 512 [0 0 0 0] ------- [0:0 1:0 32 0] [79] 0 0
Ssb 0.06474 _0_ dropped 0 -> 1
D 0.064740068 _0_ RTR TOUT 30 cbr 532 [0 0 0 0] ------- [0:0 1:0 32 0] [15] 0 0
s 0.065140207 _0_ AGT  --- 262 cbr 512 [0 0 0 0] ------- [0:0 1:0 32 0] [80] 0 0
r 0.065140207 _0_ RTR  --- 262 cbr 512 [0 0 0 0] ------- [0:0 1:0 32 0] [80] 0 0
Ssb 0.06514 _0_ dropped 0 -> 1
D 0.065140207 _0_ RTR TOUT 32 cbr 532 [0 0 0 0] ------- [0:0 1:0 32 0] [16] 0 0
s 0.065606951 _0_ AGT  --- 264 cbr 512 [0 0 0 0] ------- [0:0 1:0 32 0] [81] 0 0
r 0.065606951 _0_ RTR  --- 264 cbr 512 [0 0 0 0] ------- [0:0 1:0 32 0] [81] 0 0
Ssb 0.06561 _0_ dropped 0 -> 1
D 0.065606951 _0_ RTR TOUT 34 cbr 532 [0 0 0 0] ------- [0:0 1:0 32 0] [17] 0 0
s 0.066272723 _0_ AGT  --- 266 cbr 512 [0 0 0 0] ------- [0:0 1:0 32 0] [82] 0 0
r 0.066272723 _0_ RTR  --- 266 cbr 512 [0 0 0 0] ------- [0:0 1:0 32 0] [82] 0 0
Ssb 0.06627 _0_ dropped 0 -> 1
D 0.066272723 _0_ RTR TOUT 36 cbr 532 [0 0 0 0] ------- [0:0 1:0 32 0] [18] 0 0
s 0.067229275 _0_ AGT  --- 268 cbr 512 [0 0 0 0] ------- [0:0 1:0 32 0] [83] 0 0
r 0.067229275 _0_ RTR  --- 268 cbr 512 [0 0 0 0] ------- [0:0 1:0 32 0] [83] 0 0
Ssb 0.06723 _0_ dropped 0 -> 1
D 0.067229275 _0_ RTR TOUT 38 cbr 532 [0 0 0 0] ------- [0:0 1:0 32 0] [19] 0 0
s 0.068358826 _0_ AGT  --- 270 cbr 512 [0 0 0 0] ------- [0:0 1:0 32 0] [84] 0 0
r 0.068358826 _0_ RTR  --- 270 cbr 512 [0 0 0 0] ------- [0:0 1:0 32 0] [84] 0 0
Ssb 0.06836 _0_ dropped 0 -> 1
D 0.068358826 _0_ RTR TOUT 40 cbr 532 [0 0 0 0] ------- [0:0 1:0 32 0] [20] 0 0
s 0.068785060 _0_ AGT  --- 272 cbr 512 [0 0 0 0] ------- [0:0 1:0 32 0] [85] 0 0
r 0.068785060 _0_ RTR  --- 272 cbr 512 [0 0 0 0] ------- [0:0 1:0 32 0] [85] 0 0
Ssb 0.06879 _0_ dropped 0 -> 1
D 0.068785060 _0_ RTR TOUT 42 cbr 532 [0 0 0 0] ------- [0:0 1:0 32 0] [21] 0 0
s 0.069477258 _0_ AGT  --- 274 cbr 512 [0 0 0 0] ------- [0:0 1:0 32 0] [86] 0 0
r 0.069477258 _0_ RTR  --- 274 cbr 512 [0 0 0 0] ------- [0:0 1:0 32 0] [86] 0 0
Ssb 0.06948 _0_ dropped 0 -> 1
D 0.069477258 _0_ RTR TOUT 44 cbr 532 [0 0 0 0] ------- [0:0 1:0 32 0] [22] 0 0
s 0.070121249 _0_ AGT  --- 276 cbr 512 [0 0 0 0] ------- [0:0 1:0 32 0] [87] 0 0
r 0.070121249 _0_ RTR  --- 276 cbr 512 [0 0 0 0] ------- [0:0 1:0 32 0] [87] 0 0
Ssb 0.07012 _0_ dropped 0 -> 1
D 0.070121249 _0_ RTR TOUT 46 cbr 532 [0 0 0 0] ------- [0:0 1:0 32 0] [23] 0 0
s 0.070523929 _0_ AGT  --- 278 cbr 512 [0 0 0 0] ------- [0:0 1:0 32 0] [88] 0 0
r 0.070523929 _0_ RTR  --- 278 cbr 512 [0 0 0 0] ------- [0:0 1:0 32 0] [88] 0 0
Ssb 0.07052 _0_ dropped 0 -> 1
D 0.070523929 _0_ RTR TOUT 48 cbr 532 [0 0 0 0] ------- [0:0 1:0 32 0] [24] 0 0
s 0.071181317 _0_ AGT  --- 280 cbr 512 [0 0 0 0] ------- [0:0 1:0 32 0] [89] 0 0
r 0.071181317 _0_ RTR  --- 280 cbr 512 [0 0 0 0] ------- [0:0 1:0 32 0] [89] 0 0
Ssb 0.07118 _0_ dropped 0 -> 1
D 0.071181317 _0_ RTR TOUT 50 cbr 532 [0 0 0 0] ------- [0:0 1:0 32 0] [25] 0 0
s 0.072286323 _0_ AGT  --- 282 cbr 512 [0 0 0 0] ------- [0:0 1:0 32 0] [90] 0 0
r 0.072286323 _0_ RTR  --- 282 cbr 512 [0 0 0 0] ------- [0:0 1:0 32 0] [90] 0 0
Ssb 0.07229 _0_ dropped 0 -> 1
D 0.072286323 _0_ RTR TOUT 52 cbr 532 [0 0 0 0] ------- [0:0 1:0 32 0] [26] 0 0
s 0.073390319 _0_ AGT  --- 284 cbr 512 [0 0 0 0] ------- [0:0 1:0 32 0] [91] 0 0
r 0.073390319 _0_ RTR  --- 284 cbr 512 [0 0 0 0] ------- [0:0 1:0 32 0] [91] 0 0
Ssb 0.07339 _0_ dropped 0 -> 1
D 0.073390319 _0_ RTR TOUT 54 cbr 532 [0 0 0 0] ------- [0:0 1:0 32 0] [27] 0 0
s 0.074434985 _0_ AGT  --- 286 cbr 512 [0 0 0 0] ------- [0:0 1:0 32 0] [92] 0 0
r 0.074434985 _0_ RTR  --- 286 cbr 512 [0 0 0 0] ------- [0:0 1:0 32 0] [92] 0 0
Ssb 0.07443 _0_ dropped 0 -> 1
D 0.074434985 _0_ RTR TOUT 56 cbr 532 [0 0 0 0] ------- [0:0 1:0 32 0] [28] 0 0
s 0.074971960 _0_ AGT  --- 288 cbr 512 [0 0 0 0] ------- [0:0 1:0 32 0] [93] 0 0
r 0.074971960 _0_ RTR  --- 288 cbr 512 [0 0 0 0] ------- [0:0 1:0 32 0] [93] 0 0
Ssb 0.07497 _0_ dropped 0 -> 1
D 0.074971960 _0_ RTR TOUT 58 cbr 532 [0 0 0 0] ------- [0:0 1:0 32 0] [29] 0 0
s 0.075397513 _0_ AGT  --- 290 cbr 512 [0 0 0 0] ------- [0:0 1:0 32 0] [94] 0 0
r 0.075397513 _0_ RTR  --- 290 cbr 512 [0 0 0 0] ------- [0:0 1:0 32 0] [94] 0 0
Ssb 0.07540 _0_ dropped 0 -> 1
D 0.075397513 _0_ RTR TOUT 60 cbr 532 [0 0 0 0] ------- [0:0 1:0 32 0] [30] 0 0
s 0.076401702 _0_ AGT  --- 292 cbr 512 [0 0 0 0] ------- [0:0 1:0 32 0] [95] 0 0
r 0.076401702 _0_ RTR  --- 292 cbr 512 [0 0 0 0] ------- [0:0 1:0 32 0] [95] 0 0
Ssb 0.07640 _0_ dropped 0 -> 1
D 0.076401702 _0_ RTR TOUT 62 cbr 532 [0 0 0 0] ------- [0:0 1:0 32 0] [31] 0 0
s 0.077293987 _0_ AGT  --- 294 cbr 512 [0 0 0 0] ------- [0:0 1:0 32 0] [96] 0 0
r 0.077293987 _0_ RTR  --- 294 cbr 512 [0 0 0 0] ------- [0:0 1:0 32 0] [96] 0 0
Ssb 0.07729 _0_ dropped 0 -> 1
D 0.077293987 _0_ RTR TOUT 64 cbr 532 [0 0 0 0] ------- [0:0 1:0 32 0] [32] 0 0
s 0.078325690 _0_ AGT  --- 296 cbr 512 [0 0 0 0] ------- [0:0 1:0 32 0] [97] 0 0
r 0.078325690 _0_ RTR  --- 296 cbr 512 [0 0 0 0] ------- [0:0 1:0 32 0] [97] 0 0
Ssb 0.07833 _0_ dropped 0 -> 1
D 0.078325690 _0_ RTR TOUT 66 cbr 532 [0 0 0 0] ------- [0:0 1:0 32 0] [33] 0 0
s 0.079086699 _0_ AGT  --- 298 cbr 512 [0 0 0 0] ------- [0:0 1:0 32 0] [98] 0 0
r 0.079086699 _0_ RTR  --- 298 cbr 512 [0 0 0 0] ------- [0:0 1:0 32 0] [98] 0 0
Ssb 0.07909 _0_ dropped 0 -> 1
D 0.079086699 _0_ RTR TOUT 68 cbr 532 [0 0 0 0] ------- [0:0 1:0 32 0] [34] 0 0
s 0.079652791 _0_ AGT  --- 300 cbr 512 [0 0 0 0] ------- [0:0 1:0 32 0] [99] 0 0
r 0.079652791 _0_ RTR  --- 300 cbr 512 [0 0 0 0] ------- [0:0 1:0 32 0] [99] 0 0
Ssb 0.07965 _0_ dropped 0 -> 1
D 0.079652791 _0_ RTR TOUT 70 cbr 532 [0 0 0 0] ------- [0:0 1:0 32 0] [35] 0 0
s 0.080065589 _0_ AGT  --- 302 cbr 512 [0 0 0 0] ------- [0:0 1:0 32 0] [100] 0 0
r 0.080065589 _0_ RTR  --- 302 cbr 512 [0 0 0 0] ------- [0:0 1:0 32 0] [100] 0 0
Ssb 0.08007 _0_ dropped 0 -> 1
D 0.080065589 _0_ RTR TOUT 72 cbr 532 [0 0 0 0] ------- [0:0 1:0 32 0] [36] 0 0
s 0.080817520 _0_ AGT  --- 304 cbr 512 [0 0 0 0] ------- [0:0 1:0 32 0] [101] 0 0
r 0.080817520 _0_ RTR  --- 304 cbr 512 [0 0 0 0] ------- [0:0 1:0 32 0] [101] 0 0
Ssb 0.08082 _0_ dropped 0 -> 1
D 0.080817520 _0_ RTR TOUT 74 cbr 532 [0 0 0 0] ------- [0:0 1:0 32 0] [37] 0 0
s 0.081567298 _0_ AGT  --- 306 cbr 512 [0 0 0 0] ------- [0:0 1:0 32 0] [102] 0 0
r 0.081567298 _0_ RTR  --- 306 cbr 512 [0 0 0 0] ------- [0:0 1:0 32 0] [102] 0 0
Ssb 0.08157 _0_ dropped 0 -> 1
D 0.081567298 _0_ RTR TOUT 114 cbr 532 [0 0 0 0] ------- [0:0 1:0 32 0] [38] 0 0
s 0.082232267 _0_ AGT  --- 308 cbr 512 [0 0 0 0] ------- [0:0 1:0 32 0] [103] 0 0
r 0.082232267 _0_ RTR  --- 308 cbr 512 [0 0 0 0] ------- [0:0 1:0 32 0] [103] 0 0
Ssb 0.08223 _0_ dropped 0 -> 1
D 0.082232267 _0_ RTR TOUT 116 cbr 532 [0 0 0 0] ------- [0:0 1:0 32 0] [39] 0 0
s 0.082727609 _0_ AGT  --- 310 cbr 512 [0 0 0 0] ------- [0:0 1:0 32 0] [104] 0 0
r 0.082727609 _0_ RTR  --- 310 cbr 512 [0 0 0 0] ------- [0:0 1:0 32 0] [104] 0 0
Ssb 0.08273 _0_ dropped 0 -> 1
D 0.082727609 _0_ RTR TOUT 118 cbr 532 [0 0 0 0] ------- [0:0 1:0 32 0] [40] 0 0
s 0.083847141 _0_ AGT  --- 312 cbr 512 [0 0 0 0] ------- [0:0 1:0 32 0] [105] 0 0
r 0.083847141 _0_ RTR  --- 312 cbr 512 [0 0 0 0] ------- [0:0 1:0 32 0] [105] 0 0
Ssb 0.08385 _0_ dropped 0 -> 1
D 0.083847141 _0_ RTR TOUT 120 cbr 532 [0 0 0 0] ------- [0:0 1:0 32 0] [41] 0 0
s 0.084418462 _0_ AGT  --- 314 cbr 512 [0 0 0 0] ------- [0:0 1:0 32 0] [106] 0 0
r 0.084418462 _0_ RTR  --- 314 cbr 512 [0 0 0 0] ------- [0:0 1:0 32 0] [106] 0 0
Ssb 0.08442 _0_ dropped 0 -> 1
D 0.084418462 _0_ RTR TOUT 122 cbr 532 [0 0 0 0] ------- [0:0 1:0 32 0] [42] 0 0
s 0.085162786 _0_ AGT  --- 316 cbr 512 [0 0 0 0] ------- [0:0 1:0 32 0] [107] 0 0
r 0.085162786 _0_ RTR  --- 316 cbr 512 [0 0 0 0] ------- [0:0 1:0 32 0] [107] 0 0
Ssb 0.08516 _0_ dropped 0 -> 1
D 0.085162786 _0_ RTR TOUT 124 cbr 532 [0 0 0 0] ------- [0:0 1:0 32 0] [43] 0 0
s 0.085901132 _0_ AGT  --- 318 cbr 512 [0 0 0 0] ------- [0:0 1:0 32 0] [108] 0 0
r 0.085901132 _0_ RTR  --- 318 cbr 512 [0 0 0 0] ------- [0:0 1:0 32 0] [108] 0 0
Ssb 0.08590 _0_ dropped 0 -> 1
D 0.085901132 _0_ RTR TOUT 126 cbr 532 [0 0 0 0] ------- [0:0 1:0 32 0] [44] 0 0
s 0.086627116 _0_ AGT  --- 320 cbr 512 [0 0 0 0] ------- [0:0 1:0 32 0] [109] 0 0
r 0.086627116 _0_ RTR  --- 320 cbr 512 [0 0 0 0] ------- [0:0 1:0 32 0] [109] 0 0
Ssb 0.08663 _0_ dropped 0 -> 1
D 0.086627116 _0_ RTR TOUT 128 cbr 532 [0 0 0 0] ------- [0:0 1:0 32 0] [45] 0 0
s 0.087615638 _0_ AGT  --- 322 cbr 512 [0 0 0 0] ------- [0:0 1:0 32 0] [110] 0 0
r 0.087615638 _0_ RTR  --- 322 cbr 512 [0 0 0 0] ------- [0:0 1:0 32 0] [110] 0 0
Ssb 0.08762 _0_ dropped 0 -> 1
D 0.087615638 _0_ RTR TOUT 130 cbr 532 [0 0 0 0] ------- [0:0 1:0 32 0] [46] 0 0
s 0.088403458 _0_ AGT  --- 324 cbr 512 [0 0 0 0] ------- [0:0 1:0 32 0] [111] 0 0
r 0.088403458 _0_ RTR  --- 324 cbr 512 [0 0 0 0] ------- [0:0 1:0 32 0] [111] 0 0
Ssb 0.08840 _0_ dropped 0 -> 1
D 0.088403458 _0_ RTR TOUT 132 cbr 532 [0 0 0 0] ------- [0:0 1:0 32 0] [47] 0 0
s 0.089520898 _0_ AGT  --- 326 cbr 512 [0 0 0 0] ------- [0:0 1:0 32 0] [112] 0 0
r 0.089520898 _0_ RTR  --- 326 cbr 512 [0 0 0 0] ------- [0:0 1:0 32 0] [112] 0 0
Ssb 0.08952 _0_ dropped 0 -> 1
D 0.089520898 _0_ RTR TOUT 134 cbr 532 [0 0 0 0] ------- [0:0 1:0 32 0] [48] 0 0
s 0.090419210 _0_ AGT  --- 328 cbr 512 [0 0 0 0] ------- [0:0 1:0 32 0] [113] 0 0
r 0.090419210 _0_ RTR  --- 328 cbr 512 [0 0 0 0] ------- [0:0 1:0 32 0] [113] 0 0
Ssb 0.09042 _0_ dropped 0 -> 1
D 0.090419210 _0_ RTR TOUT 136 cbr 532 [0 0 0 0] ------- [0:0 1:0 32 0] [49] 0 0
s 0.091499836 _0_ AGT  --- 330 cbr 512 [0 0 0 0] ------- [0:0 1:0 32 0] [114] 0 0
r 0.091499836 _0_ RTR  --- 330 cbr 512 [0 0 0 0] ------- [0:0 1:0 32 0] [114] 0 0
Ssb 0.09150 _0_ dropped 0 -> 1
D 0.091499836 _0_ RTR TOUT 138 cbr 532 [0 0 0 0] ------- [0:0 1:0 32 0] [50] 0 0
s 0.092026647 _0_ AGT  --- 332 cbr 512 [0 0 0 0] ------- [0:0 1:0 32 0] [115] 0 0
r 0.092026647 _0_ RTR  --- 332 cbr 512 [0 0 0 0] ------- [0:0 1:0 32 0] [115] 0 0
Ssb 0.09203 _0_ dropped 0 -> 1
D 0.092026647 _0_ RTR TOUT 140 cbr 532 [0 0 0 0] ------- [0:0 1:0 32 0] [51] 0 0
s 0.092615080 _0_ AGT  --- 334 cbr 512 [0 0 0 0] ------- [0:0 1:0 32 0] [116] 0 0
r 0.092615080 _0_ RTR  --- 334 cbr 512 [0 0 0 0] ------- [0:0 1:0 32 0] [116] 0 0
Ssb 0.09262 _0_ dropped 0 -> 1
D 0.092615080 _0_ RTR TOUT 142 cbr 532 [0 0 0 0] ------- [0:0 1:0 32 0] [52] 0 0
s 0.093066671 _0_ AGT  --- 336 cbr 512 [0 0 0 0] ------- [0:0 1:0 32 0] [117] 0 0
r 0.093066671 _0_ RTR  --- 336 cbr 512 [0 0 0 0] ------- [0:0 1:0 32 0] [117] 0 0
Ssb 0.09307 _0_ dropped 0 -> 1
D 0.093066671 _0_ RTR TOUT 144 cbr 532 [0 0 0 0] ------- [0:0 1:0 32 0] [53] 0 0
s 0.093608019 _0_ AGT  --- 338 cbr 512 [0 0 0 0] ------- [0:0 1:0 32 0] [118] 0 0
r 0.093608019 _0_ RTR  --- 338 cbr 512 [0 0 0 0] ------- [0:0 1:0 32 0] [118] 0 0
Ssb 0.09361 _0_ dropped 0 -> 1
D 0.093608019 _0_ RTR TOUT 146 cbr 532 [0 0 0 0] ------- [0:0 1:0 32 0] [54] 0 0
s 0.094705095 _0_ AGT  --- 340 cbr 512 [0 0 0 0] ------- [0:0 1:0 32 0] [119] 0 0
r 0.094705095 _0_ RTR  --- 340 cbr 512 [0 0 0 0] ------- [0:0 1:0 32 0] [119] 0 0
Ssb 0.09471 _0_ dropped 0 -> 1
D 0.094705095 _0_ RTR TOUT 148 cbr 532 [0 0 0 0] ------- [0:0 1:0 32 0] [55] 0 0
s 0.095136698 _0_ AGT  --- 342 cbr 512 [0 0 0 0] ------- [0:0 1:0 32 0] [120] 0 0
r 0.095136698 _0_ RTR  --- 342 cbr 512 [0 0 0 0] ------- [0:0 1:0 32 0] [120] 0 0
Ssb 0.09514 _0_ dropped 0 -> 1
D 0.095136698 _0_ RTR TOUT 150 cbr 532 [0 0 0 0] ------- [0:0 1:0 32 0] [56] 0 0
s 0.095999499 _0_ AGT  --- 344 cbr 512 [0 0 0 0] ------- [0:0 1:0 32 0] [121] 0 0
r 0.095999499 _0_ RTR  --- 344 cbr 512 [0 0 0 0] ------- [0:0 1:0 32 0] [121] 0 0
Ssb 0.09600 _0_ dropped 0 -> 1
D 0.095999499 _0_ RTR TOUT 152 cbr 532 [0 0 0 0] ------- [0:0 1:0 32 0] [57] 0 0
s 0.096964465 _0_ AGT  --- 346 cbr 512 [0 0 0 0] ------- [0:0 1:0 32 0] [122] 0 0
r 0.096964465 _0_ RTR  --- 346 cbr 512 [0 0 0 0] ------- [0:0 1:0 32 0] [122] 0 0
Ssb 0.09696 _0_ dropped 0 -> 1
D 0.096964465 _0_ RTR TOUT 154 cbr 532 [0 0 0 0] ------- [0:0 1:0 32 0] [58] 0 0
s 0.097545930 _0_ AGT  --- 348 cbr 512 [0 0 0 0] ------- [0:0 1:0 32 0] [123] 0 0
r 0.097545930 _0_ RTR  --- 348 cbr 512 [0 0 0 0] ------- [0:0 1:0 32 0] [123] 0 0
Ssb 0.09755 _0_ dropped 0 -> 1
D 0.097545930 _0_ RTR TOUT 156 cbr 532 [0 0 0 0] ------- [0:0 1:0 32 0] [59] 0 0
s 0.098610123 _0_ AGT  --- 350 cbr 512 [0 0 0 0] ------- [0:0 1:0 32 0] [124] 0 0
r 0.098610123 _0_ RTR  --- 350 cbr 512 [0 0 0 0] ------- [0:0 1:0 32 0] [124] 0 0
Ssb 0.09861 _0_ dropped 0 -> 1
D 0.098610123 _0_ RTR TOUT 158 cbr 532 [0 0 0 0] ------- [0:0 1:0 32 0] [60] 0 0
s 0.099057081 _0_ AGT  --- 352 cbr 512 [0 0 0 0] ------- [0:0 1:0 32 0] [125] 0 0
r 0.099057081 _0_ RTR  --- 352 cbr 512 [0 0 0 0] ------- [0:0 1:0 32 0] [125] 0 0
Ssb 0.09906 _0_ dropped 0 -> 1
D 0.099057081 _0_ RTR TOUT 160 cbr 532 [0 0 0 0] ------- [0:0 1:0 32 0] [61] 0 0
s 0.099729050 _0_ AGT  --- 354 cbr 512 [0 0 0 0] ------- [0:0 1:0 32 0] [126] 0 0
r 0.099729050 _0_ RTR  --- 354 cbr 512 [0 0 0 0] ------- [0:0 1:0 32 0] [126] 0 0
Ssb 0.09973 _0_ dropped 0 -> 1
D 0.099729050 _0_ RTR TOUT 162 cbr 532 [0 0 0 0] ------- [0:0 1:0 32 0] [62] 0 0
s 0.100764281 _0_ AGT  --- 356 cbr 512 [0 0 0 0] ------- [0:0 1:0 32 0] [127] 0 0
r 0.100764281 _0_ RTR  --- 356 cbr 512 [0 0 0 0] ------- [0:0 1:0 32 0] [127] 0 0
Ssb 0.10076 _0_ dropped 0 -> 1
D 0.100764281 _0_ RTR TOUT 164 cbr 532 [0 0 0 0] ------- [0:0 1:0 32 0] [63] 0 0
s 0.101673944 _0_ AGT  --- 358 cbr 512 [0 0 0 0] ------- [0:0 1:0 32 0] [128] 0 0
r 0.101673944 _0_ RTR  --- 358 cbr 512 [0 0 0 0] ------- [0:0 1:0 32 0] [128] 0 0
Ssb 0.10167 _0_ dropped 0 -> 1
D 0.101673944 _0_ RTR TOUT 166 cbr 532 [0 0 0 0] ------- [0:0 1:0 32 0] [64] 0 0
s 0.102420672 _0_ AGT  --- 360 cbr 512 [0 0 0 0] ------- [0:0 1:0 32 0] [129] 0 0
r 0.102420672 _0_ RTR  --- 360 cbr 512 [0 0 0 0] ------- [0:0 1:0 32 0] [129] 0 0
Ssb 0.10242 _0_ dropped 0 -> 1
D 0.102420672 _0_ RTR TOUT 168 cbr 532 [0 0 0 0] ------- [0:0 1:0 32 0] [65] 0 0
s 0.103003854 _0_ AGT  --- 362 cbr 512 [0 0 0 0] ------- [0:0 1:0 32 0] [130] 0 0
r 0.103003854 _0_ RTR  --- 362 cbr 512 [0 0 0 0] ------- [0:0 1:0 32 0] [130] 0 0
Ssb 0.10300 _0_ dropped 0 -> 1
D 0.103003854 _0_ RTR TOUT 170 cbr 532 [0 0 0 0] ------- [0:0 1:0 32 0] [66] 0 0
s 0.103757328 _0_ AGT  --- 364 cbr 512 [0 0 0 0] ------- [0:0 1:0 32 0] [131] 0 0
r 0.103757328 _0_ RTR  --- 364 cbr 512 [0 0 0 0] ------- [0:0 1:0 32 0] [131] 0 0
Ssb 0.10376 _0_ dropped 0 -> 1
D 0.103757328 _0_ RTR TOUT 172 cbr 532 [0 0 0 0] ------- [0:0 1:0 32 0] [67] 0 0
s 0.104909264 _0_ AGT  --- 366 cbr 512 [0 0 0 0] ------- [0:0 1:0 32 0] [132] 0 0
r 0.104909264 _0_ RTR  --- 366 cbr 512 [0 0 0 0] ------- [0:0 1:0 32 0] [132] 0 0
Ssb 0.10491 _0_ dropped 0 -> 1
D 0.104909264 _0_ RTR TOUT 174 cbr 532 [0 0 0 0] ------- [0:0 1:0 32 0] [68] 0 0
s 0.105677242 _0_ AGT  --- 368 cbr 512 [0 0 0 0] ------- [0:0 1:0 32 0] [133] 0 0